 Q-Chem 5.4 (devel), Q-Chem, Inc., Pleasanton, CA (2021)
 Q-Chem 5.4.1 for Intel X86 EM64T Linux

User input:
--------------------------------------------------------------
$molecule
0   1
 Fe 1019.54856509 27.04826824 51.96152604    -1  0   0   0   0
C 1018.19497450 28.12986394 48.93522943    -2  0   0   0   0
C 1021.07586445 26.29692255 54.89141329    -2  0   0   0   0
C 1018.27465157 23.75430845 51.30697525    -2  0   0   0   0
C 1022.38465854 28.34437363 51.60674977    -2  0   0   0   0
C 1017.10785251 28.85569419 53.52422704    -2  0   0   0   0
O 1017.48573270 29.06876123 47.12117406    -3  0   0   0   0
O 1022.19116656 26.32615147 56.78947355    -3  0   0   0   0
O 1017.26637267 21.86567201 50.91794031    -3  0   0   0   0
O 1024.78787940 29.67206953 51.61632232    -3  0   0   0   0
O 1015.54254313 30.30385759 54.05185438    -3  0   0   0   0
H 1017.38928495 22.26116644 21.03330311      6     13    0    0    0
C 1018.43989852 23.64080415 19.87467347     1     12    14    15    16
H 1018.17162086 23.08848941 17.87739231     6     13    0    0    0
H 1017.77334859 25.57726886 20.06024724     6     13    0    0    0
C 1021.28089588 23.66030754 20.51302164     2     13    17    18    19
H 1022.10113575 21.83929871 20.37027744     6     16    0    0    0
H 1022.30945127 24.75658408 19.18960073     6     16    0    0    0
C 1021.87817067 24.20103399 23.28466725     2     16    20   21   22
H 1020.92609640 26.01712650 23.77908066     6     19    0    0    0
H 1020.89842142 22.95004459 24.49919877     6     19    0    0    0
C 1024.73351683 24.65399670 23.73223157     2     19   23   24   25
H 1025.82537094 22.99981056 23.07093228     6    22    0    0    0
H 1025.39789098 26.20532314 22.59007710     6    22    0    0    0
C 1025.45087682 25.49927890 26.49730637     2    22   26   27   28
H 1024.21515528 27.01344265 27.08993439     6    25    0    0    0
H 1025.04133521 23.96153242 27.78694762     6    25    0    0    0
C 1028.20983912 26.46050943 26.53039555     2    25   29   30   31
H 1029.42221544 24.74920107 26.08968066     6    28    0    0    0
H 1028.45726418 27.91662921 24.99559374     6    28    0    0    0
C 1028.80572847 27.78259075 29.14127669     2    28   32   33   34
H 1028.07617880 29.62498069 28.75640807     6    31    0    0    0
H 1027.84161086 26.87513819 30.70854727     6    31    0    0    0
C 1031.67162948 27.60264163 29.61980046     2    31   35   36   37
H 1032.06506004 25.58163285 29.92268201     6    34    0    0    0
H 1032.60418945 28.22425608 27.87331672     6    34    0    0    0
C 1032.64218675 28.99831237 32.02255553     2    34   38   39   40
H 1031.65647633 30.82946877 32.22576046     6    37    0    0    0
H 1032.01369681 27.95611824 33.71623844     6    37    0    0    0
C 1035.64209342 29.27802208 31.86777428     2    37   41   42   43
H 1036.61015424 27.41876842 31.88535009     6    40    0    0    0
H 1035.92100386 30.48971790 30.12097950     6    40    0    0    0
C 1036.51946348 30.88185496 34.10814876     2    40   44   45   46
H 1035.71975848 32.74219858 34.03046330     6    43    0    0    0
H 1036.05795948 30.18821977 35.95574662     6    43    0    0    0
C 1039.47881391 31.46258218 34.11756878     1    43   47   48   49
H 1040.66118938 29.82518791 33.69602983     6    46    0    0    0
H 1039.97015639 32.37067647 35.88057940     6    46    0    0    0
H 1039.81045022 33.01070853 32.76474926     6    46    0    0    0
H 1024.75734310 33.07884858 47.46870122     6     51    0    0    0
C 1023.46994377 33.08239622 45.80562033     1     50    52    53    54
H 1021.64765714 33.45732577 46.30237482     6     51    0    0    0
H 1023.97997149 34.34122932 44.39283837     6     51    0    0    0
C 1023.57086775 30.42722221 44.62046532     2     51    55    56    57
H 1022.30907230 29.16747137 45.58189408     6     54    0    0    0
H 1022.85618050 30.66790304 42.73432761     6     54    0    0    0
C 1026.37267156 29.33651934 44.64638876     2     54    58   59   60
H 1027.09335525 29.16123265 46.57338300     6     57    0    0    0
H 1026.49433587 27.42155825 43.85860371     6     57    0    0    0
C 1028.43502291 30.95365196 43.41301391     2     57   61   62   63
H 1027.66453930 31.33301169 41.60855642     6    60    0    0    0
H 1028.59848570 32.58728922 44.50024452     6    60    0    0    0
C 1031.16849975 29.71603599 43.01244808     2    60   64   65   66
H 1032.21012405 29.84519793 44.72852840     6    63    0    0    0
H 1031.12230419 27.72080340 42.77464921     6    63    0    0    0
C 1032.64425166 31.01871951 40.89274818     2    63   67   68   69
H 1034.45987397 30.03656087 40.64733854     6    66    0    0    0
H 1031.60957936 30.80030700 39.17419267     6    66    0    0    0
C 1032.90236851 33.89922239 41.25300837     2    66   70   71   72
H 1031.14590451 34.89376110 41.43475148     6    69    0    0    0
H 1033.90835078 34.15308016 43.09192182     6    69    0    0    0
C 1034.53578350 35.13067042 39.26458588     2    69   73   74   75
H 1036.19981078 33.90185904 38.83355583     6    72    0    0    0
H 1033.43428671 35.20154245 37.45128463     6    72    0    0    0
C 1035.56421151 37.62577688 40.08995975     2    72   76   77   78
H 1034.13143699 39.00589293 40.18643442     6    75    0    0    0
H 1036.38461962 37.55464499 41.99350571     6    75    0    0    0
C 1037.48255754 38.85187633 38.19730979     2    75   79   80   81
H 1039.16162689 37.81162585 38.16458682     6    78    0    0    0
H 1036.45838804 38.76245004 36.36838566     6    78    0    0    0
C 1038.22049688 41.57540626 38.85370467     2    78   82   83   84
H 1036.38993896 42.55690501 39.27876827     6    81    0    0    0
H 1039.54764415 41.86317327 40.48519227     6    81    0    0    0
C 1039.46717309 42.76985359 36.65923360     1    81   85   86   87
H 1040.43359305 44.69865758 36.97101906     6    84    0    0    0
H 1038.25396372 42.90836342 35.01739904     6    84    0    0    0
H 1040.88144508 41.61364790 35.78608078     6    84    0    0    0
H 1040.29938144 -5.61182552 35.80633641     6     89    0    0    0
C 1041.68713068 -4.12948856 35.66433613     1     88    90    91    92
H 1042.57188864 -3.43249952 37.41375007     6     89    0    0    0
H 1043.35440291 -4.89642608 34.57474147     6     89    0    0    0
C 1040.42034038 -2.08832276 34.00558903     2     89    93    94    95
H 1039.25041795 -2.85578437 32.58601357     6     92    0    0    0
H 1038.88561484 -1.20257001 35.22928974     6     92    0    0    0
C 1042.16957363 -0.10922531 32.89595980     2     92    96   97   98
H 1043.02320041 1.09282500 34.36239161     6     95    0    0    0
H 1043.84692809 -0.97050283 32.14706770     6     95    0    0    0
C 1040.77472199 1.41912191 30.99203460     2     95   99   100   101
H 1040.44771746 0.17062851 29.32469167     6    98    0    0    0
H 1039.18245854 2.35735460 31.85069563     6    98    0    0    0
C 1042.49385504 3.69222258 30.03883811     2    98   102   103   104
H 1043.43455438 4.49382945 31.66747686     6    101    0    0    0
H 1044.09601527 2.92086281 28.94048699     6    101    0    0    0
C 1041.35634619 5.99586214 28.75181750     2    101   105   106   107
H 1040.23382074 5.51487309 27.20161115     6    104    0    0    0
H 1039.71819954 6.56109511 29.84240325     6    104    0    0    0
C 1043.06040428 8.29020701 27.95415469     2    104   108   109   110
H 1044.36368544 8.60524228 29.54794778     6    107    0    0    0
H 1044.12219216 7.82987741 26.29420150     6    107    0    0    0
C 1041.47537410 10.68118244 27.45073222     2    107   111   112   113
H 1040.14458602 10.16421254 25.90547315     6    110    0    0    0
H 1040.42725169 11.13379539 29.27416772     6    110    0    0    0
C 1042.99905877 12.93407580 26.71838209     2    110   114   115   116
H 1043.63525351 13.97484573 28.31302787     6    113    0    0    0
H 1044.79641299 12.34871012 25.75776871     6    113    0    0    0
C 1041.52874957 14.88318899 25.04731112     2    113   117   118   119
H 1041.10178434 13.81560480 23.30427544     6    116    0    0    0
H 1039.58720028 15.42876642 25.82842748     6    116    0    0    0
C 1042.78311637 17.33238560 24.17474578     2    116   120   121   122
H 1043.44193725 18.61944606 25.72945295     6    119    0    0    0
H 1044.53635843 16.91145591 23.02966318     6    119    0    0    0
C 1041.09881392 18.70803359 22.45913480     1    119   123   124   125
H 1041.78255360 20.45808064 21.79734107     6    122    0    0    0
H 1039.28775573 18.97251605 23.16345272     6    122    0    0    0
H 1041.07255102 17.53626072 20.73999981     6    122    0    0    0
H 1039.75211069 -1.16901001 43.39228328     6     127    0    0    0
C 1038.82380904 -1.87181779 45.13247943     1     126    128    129    130
H 1037.60895016 -3.45824824 44.59015138     6     127    0    0    0
H 1040.24916482 -2.26241451 46.54389054     6     127    0    0    0
C 1036.96228456 0.10623868 45.90273977     2     127    131    132    133
H 1038.14916090 1.52905828 46.64007036     6     130    0    0    0
H 1035.95931675 0.78801021 44.29574555     6     130    0    0    0
C 1034.95600442 -0.45862940 48.01383615     2     130    134   135   136
H 1033.62615912 -2.00819394 47.57676870     6     133    0    0    0
H 1035.78580184 -1.36529226 49.58494707     6     133    0    0    0
C 1033.37617496 1.89103043 48.96009793     2     133   137   138   139
H 1034.48119455 3.47562303 49.57046590     6    136    0    0    0
H 1032.38512661 2.76743308 47.29018148     6    136    0    0    0
C 1031.52800059 1.53941905 51.33208084     2    136   140   141   142
H 1030.35970271 -0.06156862 50.73334154     6    139    0    0    0
H 1032.38263203 1.12613686 53.14123021     6    139    0    0    0
C 1030.01026747 3.91614338 51.79214106     2    139   143   144   145
H 1031.36418485 5.44715613 52.03591809     6    142    0    0    0
H 1028.95262001 4.22873084 49.91946189     6    142    0    0    0
C 1027.93859314 3.50287183 53.81621671     2    142   146   147   148
H 1026.92845440 1.65127214 53.53144565     6    145    0    0    0
H 1028.80447209 3.30115392 55.67976572     6    145    0    0    0
C 1025.96145016 5.66978166 54.03366157     2    145   149   150   151
H 1026.83632416 7.63424940 54.05925505     6    148    0    0    0
H 1024.91168966 5.60003327 52.20735813     6    148    0    0    0
C 1024.40873457 5.05102021 56.31333679     2    148   152   153   154
H 1023.93477560 3.09917927 56.22269138     6    151    0    0    0
H 1025.53073142 5.18107423 58.01027568     6    151    0    0    0
C 1022.07837949 6.83151371 56.60765795     2    151   155   156   157
H 1021.22201968 6.13304024 58.35295241     6    154    0    0    0
H 1022.84307452 8.80007831 56.66704346     6    154    0    0    0
C 1020.23541836 6.75278434 54.43285014     2    154   158   159   160
H 1021.14333759 7.80510720 52.96549747     6    157    0    0    0
H 1019.67332760 4.96768273 53.79927411     6    157    0    0    0
C 1017.82538240 8.34275253 54.87168071     1    157   161   162   163
H 1016.65627962 7.43123509 56.37317708     6    160    0    0    0
H 1016.71285711 8.58835594 53.15931591     6    160    0    0    0
H 1018.17513220 10.21683652 55.76076430     6    160    0    0    0
H 1060.38661583 12.70236910 59.86543900     6     165    0    0    0
C 1058.85076722 12.52641800 58.47077831     1     164    166    167    168
H 1057.66848134 14.22796778 58.68245734     6     165    0    0    0
H 1059.62580515 12.19764744 56.59422155     6     165    0    0    0
C 1057.26625310 10.24661312 59.22333925     2     165    169    170    171
H 1058.27015312 8.46302619 58.83157966     6     168    0    0    0
H 1056.81838683 10.23812966 61.26849043     6     168    0    0    0
C 1054.87679421 9.93212157 57.49575069     2     168    172   173   174
H 1054.11874775 11.72624261 57.25196528     6     171    0    0    0
H 1055.58560349 9.55308784 55.57768650     6     171    0    0    0
C 1052.93077493 7.75532854 58.27785952     2     171   175   176   177
H 1054.10572152 6.19600063 58.85084936     6    174    0    0    0
H 1052.23837479 8.24479950 60.12005271     6    174    0    0    0
C 1050.86773207 6.86294388 56.34495182     2    174   178   179   180
H 1049.69413015 8.37489698 55.62337487     6    177    0    0    0
H 1051.84305780 6.26602919 54.63241816     6    177    0    0    0
C 1049.58905958 4.62792229 57.45599729     2    177   181   182   183
H 1051.05763091 3.24411416 57.94960621     6    180    0    0    0
H 1048.79185282 4.92303247 59.30193783     6    180    0    0    0
C 1047.58343248 3.52453385 55.53061392     2    180   184   185   186
H 1046.38323106 5.10489675 54.89921466     6    183    0    0    0
H 1048.48379824 2.84591741 53.83225081     6    183    0    0    0
C 1045.67923679 1.68461809 56.66274001     2    183   187   188   189
H 1046.51342359 0.48691806 58.00461497     6    186    0    0    0
H 1044.21360140 2.60009966 57.63094901     6    186    0    0    0
C 1044.50352014 0.10534212 54.49315876     2    186   190   191   192
H 1044.17353944 1.22797487 52.87969423     6    189    0    0    0
H 1045.75173861 -1.37674173 53.84265872     6    189    0    0    0
C 1042.37648470 -1.53634702 55.18558105     2    189   193   194   195
H 1043.04663184 -2.30444698 56.97311863     6    192    0    0    0
H 1040.56111677 -0.52840854 55.83653210     6    192    0    0    0
C 1041.66808090 -3.43339413 53.21622354     2    192   196   197   198
H 1040.81748288 -2.73325115 51.64434683     6    195    0    0    0
H 1043.29145973 -4.43545250 52.70465503     6    195    0    0    0
C 1039.85076520 -5.32223803 54.40169122     1    195   199   200   201
H 1039.40359836 -6.69740543 53.03684396     6    198    0    0    0
H 1038.16600728 -4.37632858 55.03667129     6    198    0    0    0
H 1040.69634674 -6.22679891 55.98290266     6    198    0    0    0
H 1051.62325052 14.94917344 52.34711569     6     203    0    0    0
C 1051.97038553 16.18506918 53.93074243     1     202    204    205    206
H 1050.18374588 16.12573351 55.09625936     6     203    0    0    0
H 1053.66555139 15.36139646 54.86498130     6     203    0    0    0
C 1052.60781066 18.82541246 53.10017392     2     203    207    208    209
H 1054.30108459 18.84105599 51.93380183     6     206    0    0    0
H 1051.06359091 19.43513057 51.83224808     6     206    0    0    0
C 1052.75776653 20.86086246 55.16006754     2     206    210   211   212
H 1052.23147655 22.45230381 54.06180438     6     209    0    0    0
H 1051.28059314 20.77953474 56.52805929     6     209    0    0    0
C 1055.44999158 20.87273802 56.40412107     2     209   213   214   215
H 1055.39792098 19.41434259 57.87292253     6    212    0    0    0
H 1056.82341598 20.21247427 55.02720809     6    212    0    0    0
C 1056.29712731 23.50926548 57.20078888     2    212   216   217   218
H 1058.25519098 23.71831319 56.87494059     6    215    0    0    0
H 1055.45554308 24.88723117 55.99530776     6    215    0    0    0
C 1055.41001236 24.07674076 59.92028951     2    215   219   220   221
H 1053.65062338 23.14009586 60.50134433     6    218    0    0    0
H 1056.80686839 23.41612516 61.21046379     6    218    0    0    0
C 1055.05387505 27.02857695 60.14712827     2    218   222   223   224
H 1056.78813153 28.24920021 59.68007158     6    221    0    0    0
H 1053.50931433 27.61688472 58.90904060     6    221    0    0    0
C 1054.26212779 27.89137142 62.77238762     2    221   225   226   227
H 1052.89946407 26.53881140 63.42755693     6    224    0    0    0
H 1055.90392439 27.95144178 64.14252703     6    224    0    0    0
C 1052.93921655 30.49472975 62.89660186     2    224   228   229   230
H 1054.12124011 32.02974212 62.37212106     6    227    0    0    0
H 1051.38544991 30.35461240 61.56077064     6    227    0    0    0
C 1051.57112643 30.98178833 65.46259240     2    227   231   232   233
H 1049.73210048 29.89058714 65.47813826     6    230    0    0    0
H 1052.52669765 30.19089256 67.18128453     6    230    0    0    0
C 1051.13193582 33.85798224 65.96942460     2    230   234   235   236
H 1052.81460854 34.57537422 66.22901882     6    233    0    0    0
H 1050.22137749 34.85684045 64.50271483     6    233    0    0    0
C 1049.69256972 34.46057518 68.50258538     1    233   237   238   239
H 1049.04981418 36.37235066 68.72919533     6    236    0    0    0
H 1050.91097481 33.97467839 70.23959957     6    236    0    0    0
H 1048.15561688 33.10428442 68.72957527     6    236    0    0    0
H 1051.04925708 35.08748293 35.79513863     6     241    0    0    0
C 1049.12391890 34.90134323 34.99946465     1     240    242    243    244
H 1049.31440851 33.33019759 33.70941739     6     241    0    0    0
H 1047.89288101 34.29980016 36.41880421     6     241    0    0    0
C 1048.42242392 37.47243841 33.71156977     2     241    245    246    247
H 1048.67341293 39.07213025 34.96589375     6     244    0    0    0
H 1049.85749974 37.78158601 32.32593261     6     244    0    0    0
C 1045.67825317 37.64631560 32.70344031     2     244    248   249   250
H 1045.34725053 36.29434839 31.04610088     6     247    0    0    0
H 1044.43095047 37.26469874 34.26930830     6     247    0    0    0
C 1045.19400435 40.32596075 31.71800726     2     247   251   252   253
H 1043.13906739 40.33634034 31.31667765     6    250    0    0    0
H 1045.39600629 41.65265066 33.22292147     6    250    0    0    0
C 1046.52917860 41.00697179 29.15136994     2    250   254   255   256
H 1048.59612173 40.64405186 29.26270381     6    253    0    0    0
H 1045.87728924 39.52669015 27.82969569     6    253    0    0    0
C 1045.81611028 43.55215708 28.01959259     2    253   257   258   259
H 1046.91151863 43.97013942 26.22779822     6    256    0    0    0
H 1043.82452996 43.71920294 27.63188105     6    256    0    0    0
C 1046.37117729 45.90362673 29.77618144     2    256   260   261   262
H 1045.45637611 45.59696302 31.57492508     6    259    0    0    0
H 1048.32042305 45.78338145 30.13610145     6    259    0    0    0
C 1045.93335491 48.49498198 28.43525561     2    259   263   264   265
H 1047.32943543 48.74224942 27.06137932     6    262    0    0    0
H 1044.31135416 48.38638879 27.28464652     6    262    0    0    0
C 1045.76265283 50.64894724 30.27318076     2    262   266   267   268
H 1044.82383685 50.14928783 31.99578921     6    265    0    0    0
H 1047.79192212 50.95467755 30.77980193     6    265    0    0    0
C 1044.83894494 53.11358597 29.23267196     2    265   269   270   271
H 1045.78825217 53.59773345 27.46675771     6    268    0    0    0
H 1042.77438067 53.01059585 28.84292068     6    268    0    0    0
C 1045.45866264 55.46563122 30.84204042     2    268   272   273   274
H 1045.16418412 54.82532713 32.76438759     6    271    0    0    0
H 1047.52811583 55.82178521 30.85777763     6    271    0    0    0
C 1043.97410046 57.88353151 29.94410997     1    271   275   276   277
H 1042.58274449 57.46766454 28.47306508     6    274    0    0    0
H 1045.29792183 59.12206971 28.91371828     6    274    0    0    0
H 1042.87743781 58.99863171 31.26937071     6    274    0    0    0
H 1053.04848260 14.98685810 40.18622203     6     279    0    0    0
C 1051.95775540 15.45252268 41.89121101     1     278    280    281    282
H 1050.02020624 15.22473063 41.31177080     6     279    0    0    0
H 1052.11683399 13.86893792 43.28940979     6     279    0    0    0
C 1052.59816457 18.05822413 43.08392136     2     279    283    284    285
H 1054.35168903 17.90419406 43.94599133     6     282    0    0    0
H 1052.69548916 19.44259650 41.58619049     6     282    0    0    0
C 1050.54796695 18.58392955 45.00441999     2     282    286   287   288
H 1048.67130568 18.50973143 44.18759729     6     285    0    0    0
H 1050.59907370 17.05245159 46.43780605     6     285    0    0    0
C 1050.97801588 21.08682727 46.37374633     2     285   289   290   291
H 1052.27867519 21.12959381 47.91799105     6    288    0    0    0
H 1051.80982562 22.56710958 45.15528943     6    288    0    0    0
C 1048.52687360 21.98178526 47.54214180     2    288   292   293   294
H 1046.88838104 21.92356369 46.18221844     6    291    0    0    0
H 1048.13540933 20.57559477 49.10387044     6    291    0    0    0
C 1048.61665194 24.51171850 48.90462555     2    291   295   296   297
H 1046.87088934 24.90663356 49.82977099     6    294    0    0    0
H 1050.02314814 24.53905251 50.31979023     6    294    0    0    0
C 1049.01572913 26.78007841 47.03251917     2    294   298   299   300

   19   -1830.4295819706      6.65E-09 Convergence criterion met
 Total energy in the final basis set = -1828.25591687
 Total job time:  17.90s(wall), 31.72s(cpu)
        *  Thank you very much for using Q-Chem.  Have a nice day.  *

User input: 2 of 2

                  Welcome to Q-Chem
     A Quantum Leap Into The Future Of Chemistry

 Q-Chem 5.4 (devel), Q-Chem, Inc., Pleasanton, CA (2021)

 E. Epifanovsky,  A. T. B. Gilbert,  Xintian Feng,  Joonho Lee,  Yuezhi Mao,
 N. Mardirossian,  P. Pokhilko,  A. White,  M. Wormit,  M. P. Coons,
 A. L. Dempwolff,  Zhengting Gan,  D. Hait,  P. R. Horn,  L. D. Jacobson,
 I. Kaliman,  J. Kussmann,  A. W. Lange,  Ka Un Lao,  D. S. Levine,  Jie Liu,
 S. C. McKenzie,  A. F. Morrison,  K. Nanda,  F. Plasser,  D. R. Rehn,
 M. L. Vidal,  Zhi-Qiang You,  Ying Zhu,  B. Alam,  B. Albrecht,
 A. Aldossary,  E. Alguire,  J. H. Andersen,  D. Barton,  K. Begam,  A. Behn,
 Y. A. Bernard,  E. J. Berquist,  H. Burton,  A. Carreras,  K. Carter-Fenk,
 R. Chakraborty,  A. D. Chien,  K. D. Closser,  V. Cofer-Shabica,
 S. Dasgupta,  Jia Deng,  M. de Wergifosse,  M. Diedenhofen,  Hainam Do,
 S. Ehlert,  Po-Tung Fang,  S. Fatehi,  Qingguo Feng,  T. Friedhoff,
 J. Gayvert,  Qinghui Ge,  G. Gidofalvi,  M. Goldey,  J. Gomes,
 C. Gonzalez-Espinoza,  S. Gulania,  A. Gunina,  M. W. D. Hanson-Heine,
 P. H. P. Harbach,  A. W. Hauser,  M. F. Herbst,  M. Hernandez Vera,
 M. Hodecker,  Z. C. Holden,  S. Houck,  Xunkun Huang,  Kerwin Hui,
 B. C. Huynh,  M. Ivanov,  Hyunjun Ji,  Hanjie Jiang,  B. Kaduk,  S. Kaehler,
 K. Khistyaev,  Jaehoon Kim,  P. Klunzinger,  Z. Koczor-Benda,
 Joong Hoon Koh,  D. Kosenkov,  L. Koulias,  T. Kowalczyk,  C. M. Krauter,
 K. Kue,  A. Kunitsa,  T. Kus,  A. Landau,  K. V. Lawler,  D. Lefrancois,
 S. Lehtola,  Rain Li,  Yi-Pei Li,  Jiashu Liang,  M. Liebenthal,
 Hung-Hsuan Lin,  You-Sheng Lin,  Fenglai Liu,  Kuan-Yu Liu,
 M. Loipersberger,  A. Luenser,  A. Manjanath,  P. Manohar,  E. Mansoor,
 S. F. Manzer,  Shan-Ping Mao,  A. V. Marenich,  T. Markovich,  S. Mason,
 S. A. Maurer,  P. F. McLaughlin,  M. F. S. J. Menger,  J.-M. Mewes,
 S. A. Mewes,  P. Morgante,  J. W. Mullinax,  K. J. Oosterbaan,  G. Paran,
 Alexander C. Paul,  Suranjan K. Paul,  F. Pavosevic,  Zheng Pei,  S. Prager,
 E. I. Proynov,  E. Ramos,  B. Rana,  A. E. Rask,  A. Rettig,  R. M. Richard,
 F. Rob,  E. Rossomme,  T. Scheele,  M. Scheurer,  M. Schneider,
 N. Sergueev,  S. M. Sharada,  W. Skomorowski,  D. W. Small,  C. J. Stein,
 Yu-Chuan Su,  E. J. Sundstrom,  Zhen Tao,  J. Thirman,  T. Tsuchimochi,
 N. M. Tubman,  S. P. Veccham,  O. Vydrov,  J. Wenzel,  J. Witte,  A. Yamada,
 Kun Yao,  S. Yeganeh,  S. R. Yost,  A. Zech,  Igor Ying Zhang,  Xing Zhang,
 Yu Zhang,  D. Zuev,  A. Aspuru-Guzik,  A. T. Bell,  N. A. Besley,
 K. B. Bravaya,  B. R. Brooks,  D. Casanova,  Jeng-Da Chai,  S. Coriani,
 C. J. Cramer,  A. E. DePrince, III,  R. A. DiStasio Jr.,  A. Dreuw,
 B. D. Dunietz,  T. R. Furlani,  W. A. Goddard III,  S. Grimme,
 S. Hammes-Schiffer,  T. Head-Gordon,  W. J. Hehre,  Chao-Ping Hsu,
 T.-C. Jagau,  Yousung Jung,  A. Klamt,  Jing Kong,  D. S. Lambrecht,
 WanZhen Liang,  N. J. Mayhall,  C. W. McCurdy,  J. B. Neaton,
 C. Ochsenfeld,  J. A. Parkhill,  R. Peverati,  V. A. Rassolov,  Yihan Shao,
 L. V. Slipchenko,  T. Stauch,  R. P. Steele,  J. E. Subotnik,
 A. J. W. Thom,  A. Tkatchenko,  D. G. Truhlar,  T. Van Voorhis,
 T. A. Wesolowski,  K. B. Whaley,  H. L. Woodcock III,  P. M. Zimmerman,
 S. Faraji,  P. M. W. Gill,  M. Head-Gordon,  J. M. Herbert,  A. I. Krylov

 Additional authors for Version 5.4.1:
 S. Kotaru,  Shaozhi Li,  Xiangyuan Li,  F. Matz,  A. Molle,  Haisheng Ren,
 Yingli Su,  Hung-Yi Tsai,  C. Utku,  Fang Wang

 Contributors to earlier versions of Q-Chem not listed above:
 R. D. Adamson,  B. Austin,  R. Baer,  J. Baker,  G. J. O. Beran,
 K. Brandhorst,  S. T. Brown,  E. F. C. Byrd,  A. K. Chakraborty,
 G. K. L. Chan,  Chun-Min Chang,  Yunqing Chen,  C.-L. Cheng,
 Siu Hung Chien,  D. M. Chipman,  D. L. Crittenden,  H. Dachsel,
 R. J. Doerksen,  A. D. Dutoi,  R. G. Edgar,  J. Fosso-Tande,
 L. Fusti-Molnar,  D. Ghosh,  A. Ghysels,  A. Golubeva-Zadorozhnaya,
 J. Gonthier,  M. S. Gordon,  S. R. Gwaltney,  G. Hawkins,  J. E. Herr,
 A. Heyden,  S. Hirata,  E. G. Hohenstein,  G. Kedziora,  F. J. Keil,
 C. Kelley,  Jihan Kim,  R. A. King,  R. Z. Khaliullin,  P. P. Korambath,
 W. Kurlancheek,  A. Laurent,  A. M. Lee,  M. S. Lee,  S. V. Levchenko,
 Ching Yeh Lin,  D. Liotard,  E. Livshits,  R. C. Lochan,  I. Lotan,
 L. A. Martinez-Martinez,  P. E. Maslen,  N. Nair,  D. P. O'Neill,
 D. Neuhauser,  E. Neuscamman,  C. M. Oana,  R. Olivares-Amaya,  R. Olson,
 T. M. Perrine,  B. Peters,  P. A. Pieniazek,  A. Prociuk,  Y. M. Rhee,
 J. Ritchie,  M. A. Rohrdanz,  E. Rosta,  N. J. Russ,  H. F. Schaefer III,
 M. W. Schmidt,  N. E. Schultz,  S. Sharma,  N. Shenvi,  C. D. Sherrill,
 A. C. Simmonett,  A. Sodt,  T. Stein,  D. Stuck,  K. S. Thanthiriwatte,
 V. Vanovschi,  L. Vogt,  Tao Wang,  A. Warshel,  M. A. Watson,
 C. F. Williams,  Q. Wu,  X. Xu,  Jun Yang,  W. Zhang,  Yan Zhao

 Please cite Q-Chem as follows:
 Y. Shao et al., Mol. Phys. 113, 184-215 (2015)
 DOI: 10.1080/00268976.2014.952696

 Q-Chem 5.4.1 for Intel X86 EM64T Linux

 Parts of Q-Chem use Armadillo 9.900.5 (Nocturnal Misbehaviour).
 http://arma.sourceforge.net/

 Q-Chem begins on Wed Jun 22 08:05:43 2022

 Host: p09r16n04.grace.hpc.yale.internal
0

     Scratch files written to /home/tl686/scratch60/qchem_dev/scratch/qchem69252//
 Processing $rem in /home/tl686/qchem_dev/qchem/config/preferences:
 Processing $rem in /home/tl686/.qchemrc:
Applying user defined connections for MM calculations
The previous job contains 0 fragments, simply inherited here

 Checking the input file for inconsistencies... 	...done.

--------------------------------------------------------------
User input:
--------------------------------------------------------------

$molecule
READ
$end

$qm_atoms
1:11
$end

$force_field_params
NumAtomTypes 3
AtomType -1   0.0238     3.11   0.2868
AtomType -2   0.07124    3.30   0.6597
AtomType -3  -0.0760     3.09   0.1434
$end

$rem
     JOBTYPE  freq
     METHOD   bp86
     BASIS    def2-msvp
     MAX_SCF_CYCLES   800
     INPUT_BOHR TRUE
     SYM_IGNORE TRUE
     SCF_GUESS     read
     user_connect            true
     qm_mm_interface         ONIOM
     force_field             oplsaa
$end

--------------------------------------------------------------

    2   -1830.4295819702      6.74E-09 Convergence criterion met
 Total energy in the final basis set = -1828.25591687

                    Orbital Energies (a.u.)
 --------------------------------------------------------------

 Alpha MOs
 -- Occupied --
******** -29.6486 -25.6071 -25.5974 -25.5914 -18.9047 -18.9019 -18.8972
-18.8886 -18.8251 -10.0714 -10.0676 -10.0620 -10.0544 -10.0421  -3.3357
 -2.1700  -2.1523  -2.1358  -1.0861  -1.0783  -1.0695  -1.0615  -0.8750
 -0.5938  -0.5446  -0.5338  -0.5283  -0.5171  -0.4659  -0.4564  -0.4546
 -0.4462  -0.4443  -0.4434  -0.4376  -0.4275  -0.4260  -0.4213  -0.4168
 -0.4045  -0.3703  -0.3225  -0.3166  -0.2816  -0.2706  -0.2431  -0.2305

          Ground-State Mulliken Net Atomic Charges

     Atom                 Charge (a.u.)
  ----------------------------------------
      1 Fe                   -0.391744
      2 C                     0.228836
      3 C                     0.206900
      4 C                     0.232472
      5 C                     0.140842
      6 C                     0.248145
      7 O                    -0.073705
      8 O                    -0.092411
      9 O                    -0.082369
     10 O                    -0.313315
     11 O                    -0.103651
  ----------------------------------------
  Sum of atomic charges =     0.000000

                    Cartesian Multipole Moments
 -----------------------------------------------------------------
    Charge (ESU x 10^10)
                -0.0000
    Dipole Moment (Debye)
         X      -2.6101800765      Y      -1.7343661009      Z       0.1322823989
       Tot       3.1366485995
    Quadrupole Moments (Debye-Ang)
        XX   -2891.8913     XY    -976.5265     YY    -119.4056
        XZ       0.3398     YZ     -46.1773     ZZ     -59.3546

 Frequency:       -42.44                 -34.53                  42.14
 Force Cnst:      0.0163                 0.0112                 0.0178
 Red. Mass:      15.3542                15.9403                16.9761
 IR Intens:        0.000                  0.000                  0.000
 Frequency:        57.30                  92.73                 109.56
 Force Cnst:      0.0302                 0.0856                 0.1183
 Red. Mass:      15.6333                16.9028                16.7328
 IR Intens:        0.000                  0.000                  0.000
 Frequency:       158.70                 296.25                 325.09
 Force Cnst:      0.2310                 0.7911                 0.7969
 Red. Mass:      15.5636                15.2996                12.7985
 IR Intens:        0.000                  0.000                  0.000
 Frequency:       351.69                 372.35                 393.77
 Force Cnst:      0.9326                 1.1561                 1.3152
 Red. Mass:      12.7980                14.1537                14.3972
 IR Intens:        0.000                  0.000                  0.000
 Frequency:       429.58                 448.44                 467.74
 Force Cnst:      1.4444                 1.6130                 1.8201
 Red. Mass:      13.2845                13.6135                14.1198
 IR Intens:        0.000                  0.000                  0.000
 Frequency:       481.47                 520.99                 549.15
 Force Cnst:      1.7939                 2.1668                 2.8218
 Red. Mass:      13.1344                13.5493                15.8811
 IR Intens:        0.000                  0.000                  0.000
 Frequency:       569.07                 594.04                 693.56
 Force Cnst:      2.9963                 3.1913                 3.8993
 Red. Mass:      15.7041                15.3488                13.7585
 IR Intens:        0.000                  0.000                  0.000
 Frequency:       702.06                 931.07                2018.64
 Force Cnst:      4.0782                 7.1250                31.9977
 Red. Mass:      14.0432                13.9498                13.3276
 IR Intens:        0.000                  0.000                  0.000
 Frequency:      2041.70                2104.94                2174.78
 Force Cnst:     32.7703                34.9245                37.1915
 Red. Mass:      13.3427                13.3783                13.3464
 IR Intens:        0.000                  0.000                  0.000

 STANDARD THERMODYNAMIC QUANTITIES AT   298.15 K  AND     1.00 ATM

   This Molecule has  2 Imaginary Frequencies
   Zero point vibrational energy:       24.198 kcal/mol

   Atom    1 Element Fe Has Mass   55.93490
   Atom    2 Element C  Has Mass   12.00000
   Atom    3 Element C  Has Mass   12.00000
   Atom    4 Element C  Has Mass   12.00000
   Atom    5 Element C  Has Mass   12.00000
   Atom    6 Element C  Has Mass   12.00000
   Atom    7 Element O  Has Mass   15.99491
   Atom    8 Element O  Has Mass   15.99491
   Atom    9 Element O  Has Mass   15.99491
   Atom   10 Element O  Has Mass   15.99491
   Atom   11 Element O  Has Mass   15.99491
   Molecular Mass:   195.909450 amu
   Principal axes and moments of inertia in amu*Bohr^2:
                             1           2           3
    Eigenvalues --     1818.38812  2228.35137  2486.77088
          X               0.77768     0.20410    -0.59460
          Y               0.13533     0.86930     0.47540
          Z               0.61391    -0.45018     0.64842
   Rotational Symmetry Number is   1
   The Molecule is an Asymmetric Top
   Translational Enthalpy:        0.889 kcal/mol
   Rotational Enthalpy:           0.889 kcal/mol
   Vibrational Enthalpy:         28.994 kcal/mol
   gas constant (RT):             0.592 kcal/mol
   Translational Entropy:        41.722  cal/mol.K
   Rotational Entropy:           30.689  cal/mol.K
   Vibrational Entropy:          31.059  cal/mol.K

   Total Enthalpy:               31.364 kcal/mol
   Total Entropy:               103.470  cal/mol.K

 Total job time:  126.90s(wall), 250.54s(cpu)
        *  Thank you very much for using Q-Chem.  Have a nice day.  *
