 Q-Chem 5.4 (devel), Q-Chem, Inc., Pleasanton, CA (2021)
 Q-Chem 5.4.1 for Intel X86 EM64T Linux

User input:
--------------------------------------------------------------
$molecule
0   1
 Fe 930.78934887 -53.64240590 69.70801269    -1  0   0   0   0
C 929.98234853 -53.78913150 73.07094844    -2  0   0   0   0
C 931.99236244 -53.07864554 66.52703727    -2  0   0   0   0
C 934.06067295 -53.58127432 70.65753309    -2  0   0   0   0
C 929.27984919 -56.58669991 68.64978936    -2  0   0   0   0
C 928.64118148 -50.85891518 69.45323307    -2  0   0   0   0
O 929.31861783 -53.86649038 75.20268084    -3  0   0   0   0
O 932.67315658 -53.00624022 64.52444775    -3  0   0   0   0
O 936.11342865 -53.38957733 71.44551179    -3  0   0   0   0
O 928.43084922 -58.42871377 67.70598976    -3  0   0   0   0
O 927.48295784 -49.00446290 69.24504613    -3  0   0   0   0
H 946.41831731 -71.61473760 89.20118885      6     13    0    0    0
C 944.86899601 -71.04440692 90.56840021     1     12    14    15    16
H 945.72571502 -71.02321308 92.54656041     6     13    0    0    0
H 944.46203412 -68.99511929 90.18971580     6     13    0    0    0
C 942.70437821 -72.87569766 90.29335497     2     13    17    18    19
H 943.46925571 -74.72710251 90.47932992     6     16    0    0    0
H 941.20361641 -72.60456782 91.66722083     6     16    0    0    0
C 941.36420667 -72.60889935 87.86693914     2     16    20   21   22
H 940.48739106 -70.74500206 88.02898821     6     19    0    0    0
H 942.73395491 -72.46156109 86.34383954     6     19    0    0    0
C 939.42894936 -74.43450753 87.11707117     2     19   23   24   25
H 940.21010722 -76.22972236 86.54999273     6    22    0    0    0
H 938.14248713 -75.01383332 88.52220929     6    22    0    0    0
C 938.26208931 -73.55081407 84.55037060     2    22   26   27   28
H 937.10135121 -71.93616037 84.82513071     6    25    0    0    0
H 939.64654994 -72.85785551 83.11956856     6    25    0    0    0
C 936.88389592 -75.76901866 83.24720283     2    25   29   30   31
H 938.17768516 -77.12793592 82.44646428     6    28    0    0    0
H 935.89566246 -76.80746640 84.63287699     6    28    0    0    0
C 935.03268252 -75.10646982 81.05811090     2    28   32   33   34
H 933.33940187 -74.29532128 82.01555790     6    31    0    0    0
H 935.89077372 -73.64565935 79.87686617     6    31    0    0    0
C 934.25341693 -77.43259874 79.50491248     2    31   35   36   37
H 935.83864058 -78.51853353 78.63287708     6    34    0    0    0
H 933.38719367 -78.95299720 80.55562061     6    34    0    0    0
C 932.53725164 -76.64549680 77.30007245     2    34   38   39   40
H 930.68867857 -76.14204399 78.08714049     6    37    0    0    0
H 933.27962755 -75.05454099 76.29250132     6    37    0    0    0
C 932.16808334 -79.07534475 75.45417983     2    37   41   42   43
H 933.98004913 -79.56021193 74.64723154     6    40    0    0    0
H 931.68294909 -80.57257469 76.82673107     6    40    0    0    0
C 930.08448071 -78.89026774 73.45691660     2    40   44   45   46
H 928.16432047 -78.64935853 74.29743613     6    43    0    0    0
H 930.25392865 -77.23341561 72.17220615     6    43    0    0    0
C 930.27359033 -81.02948768 71.52433825     1    43   47   48   49
H 931.93017077 -80.77293092 70.29648984     6    46    0    0    0
H 928.70427805 -81.27328231 70.35123843     6    46    0    0    0
H 930.50122323 -82.88891741 72.33026119     6    46    0    0    0
H 926.92070467 -68.53563500 70.30098032     6     51    0    0    0
C 928.91163914 -68.26446412 69.89868380     1     50    52    53    54
H 929.39396296 -67.81400550 67.99465816     6     51    0    0    0
H 929.56114856 -66.59729360 70.88772750     6     51    0    0    0
C 930.63062320 -70.74399297 70.35210308     2     51    55    56    57
H 932.52565547 -70.12350050 70.05370632     6     54    0    0    0
H 930.43391512 -71.41117510 72.27926730     6     54    0    0    0
C 930.02447275 -72.84887399 68.44008771     2     54    58   59   60
H 930.59453811 -72.27967465 66.63216560     6     57    0    0    0
H 930.94326520 -74.58014431 68.92627357     6     57    0    0    0
C 927.19919387 -73.56694524 68.42110854     2     57   61   62   63
H 926.57140100 -73.94929201 70.39223520     6    60    0    0    0
H 925.97132369 -71.97920841 67.65366041     6    60    0    0    0
C 926.48570419 -75.90803180 66.79141893     2    60   64   65   66
H 926.82817135 -75.65827213 64.75701017     6    63    0    0    0
H 927.68903553 -77.57050294 67.31966054     6    63    0    0    0
C 923.72975234 -76.59084372 67.06867331     2    63   67   68   69
H 923.65354231 -78.62202116 66.86424273     6    66    0    0    0
H 923.06298560 -76.41083809 69.05176324     6    66    0    0    0
C 921.87821654 -75.14934730 65.18878144     2    66   70   71   72
H 921.70077610 -73.15932894 65.74462636     6    69    0    0    0
H 922.69080237 -75.28370411 63.21997034     6    69    0    0    0
C 919.21282174 -76.33789036 65.44055307     2    69   73   74   75
H 919.13110861 -78.26143006 65.18457728     6    72    0    0    0
H 918.48544950 -75.93894272 67.26585028     6    72    0    0    0
C 917.40339436 -74.97653841 63.50136452     2    72   76   77   78
H 917.54151270 -72.96211147 64.04618873     6    75    0    0    0
H 918.11308729 -75.31137068 61.57674443     6    75    0    0    0
C 914.69326238 -75.49347102 63.87585291     2    75   79   80   81
H 914.26775310 -77.40025676 63.00758686     6    78    0    0    0
H 914.38117226 -75.90666013 65.89751166     6    78    0    0    0
C 912.82952068 -73.47240806 62.96690310     2    78   82   83   84
H 913.62905348 -71.69861202 63.60766325     6    81    0    0    0
H 912.94584652 -73.55823002 60.81606028     6    81    0    0    0
C 910.05723146 -73.81285358 63.77358425     1    81   85   86   87
H 909.43309386 -75.70035203 63.10292069     6    84    0    0    0
H 908.90910390 -72.35872422 62.95371249     6    84    0    0    0
H 909.63861130 -73.87991236 65.68493371     6    84    0    0    0
H 955.95127100 -81.55539352 77.86025297     6     89    0    0    0
C 955.20556371 -83.33367455 77.16950834     1     88    90    91    92
H 955.96187948 -83.88756297 75.35294786     6     89    0    0    0
H 956.06335915 -84.62781357 78.37144879     6     89    0    0    0
C 952.28229934 -83.36289243 77.29656648     2     89    93    94    95
H 951.98436630 -82.25697567 78.97296647     6     92    0    0    0
H 951.55653287 -82.19429088 75.58514708     6     92    0    0    0
C 951.42807791 -86.04456304 77.50540766     2     92    96   97   98
H 951.44090460 -86.93095430 75.71221459     6     95    0    0    0
H 952.84062488 -87.00320114 78.72819896     6     95    0    0    0
C 948.95460637 -86.49187856 78.72393251     2     95   99   100   101
H 949.18331309 -86.13435002 80.76390413     6    98    0    0    0
H 947.67171371 -85.04846716 77.94679744     6    98    0    0    0
C 947.90784206 -89.17822608 78.37445183     2    98   102   103   104
H 947.78318266 -89.53293143 76.37869731     6    101    0    0    0
H 949.27334697 -90.55754490 79.08826370     6    101    0    0    0
C 945.33038635 -89.60518439 79.76060815     2    101   105   106   107
H 945.69226294 -89.42505785 81.81489276     6    104    0    0    0
H 944.25421941 -87.86766976 79.27243407     6    104    0    0    0
C 944.14687741 -92.22913751 79.04565546     2    104   108   109   110
H 944.46160282 -92.67569994 77.03974366     6    107    0    0    0
H 944.92626021 -93.81339714 79.93858394     6    107    0    0    0
C 941.26428454 -92.08609016 79.53387949     2    107   111   112   113
H 941.01521706 -91.72480602 81.65938131     6    110    0    0    0
H 940.34933003 -90.53994332 78.55872056     6    110    0    0    0
C 939.56299192 -94.34617913 78.92349192     2    110   114   115   116
H 939.63670058 -94.68326363 76.78947391     6    113    0    0    0
H 940.53478426 -95.97680792 79.95693104     6    113    0    0    0
C 936.76780430 -94.12078038 79.45638555     2    113   117   118   119
H 936.82514176 -93.33351671 81.43405026     6    116    0    0    0
H 935.93083073 -92.60622507 78.44489616     6    116    0    0    0
C 935.56589483 -96.70191711 79.00595722     2    116   120   121   122
H 933.51178972 -96.55381781 79.51359025     6    119    0    0    0
H 935.45255835 -97.45647117 77.06695241     6    119    0    0    0
C 936.47760892 -98.74443578 80.65397578     1    119   123   124   125
H 934.93604626 -100.12310414 81.10001025     6    122    0    0    0
H 937.62141628 -98.28931938 82.27114117     6    122    0    0    0
H 937.49744183 -100.16890496 79.51671405     6    122    0    0    0
H 948.94024705 -71.32677936 70.15256863     6     127    0    0    0
C 949.63496180 -69.44979019 70.32908287     1     126    128    129    130
H 950.15055158 -68.87484557 72.22242261     6     127    0    0    0
H 951.40840290 -69.45777978 69.19801440     6     127    0    0    0
C 948.09831946 -67.31907506 68.99937319     2     127    131    132    133
H 947.54636925 -67.74601972 66.95207381     6     130    0    0    0
H 946.28975382 -67.10171490 69.89391871     6     130    0    0    0
C 949.65870268 -64.95756542 68.77066845     2     130    134   135   136
H 950.67058316 -64.74159261 70.59143800     6     133    0    0    0
H 950.96606824 -64.90208642 67.24927967     6     133    0    0    0
C 948.08431408 -62.46133958 68.09464057     2     133   137   138   139
H 946.86787367 -62.59087877 66.42408919     6    136    0    0    0
H 946.79857854 -61.96534396 69.62522375     6    136    0    0    0
C 949.88584300 -60.25629104 67.88657456     2    136   140   141   142
H 951.16799221 -59.93580737 69.44401850     6    139    0    0    0
H 951.20110629 -60.53568179 66.35577139     6    139    0    0    0
C 948.30293976 -57.72982110 67.46256418     2    139   143   144   145
H 947.28571047 -58.03826832 65.80543575     6    142    0    0    0
H 946.96425413 -57.41482063 68.85727428     6    142    0    0    0
C 949.98271800 -55.26920287 67.28870996     2    142   146   147   148
H 951.68248076 -55.38582482 68.46007660     6    145    0    0    0
H 950.75938356 -55.31787608 65.35204256     6    145    0    0    0
C 948.41345364 -52.81835855 67.55499489     2    145   149   150   151
H 946.81961089 -53.28224584 66.26899470     6    148    0    0    0
H 948.00580866 -52.79380785 69.58215469     6    148    0    0    0
C 949.74852769 -50.27890647 66.88518092     2    148   152   153   154
H 950.85131408 -49.71484764 68.47086641     6    151    0    0    0
H 951.06722930 -50.64033293 65.47185109     6    151    0    0    0
C 947.78461070 -48.21069288 66.07622761     2    151   155   156   157
H 948.74248937 -46.59204953 65.39738807     6    154    0    0    0
H 946.90985726 -49.16383131 64.40487255     6    154    0    0    0
C 946.08935815 -47.51415869 68.31338112     2    154   158   159   160
H 944.95955684 -46.19068477 67.43870970     6    157    0    0    0
H 944.82994797 -49.08800729 68.74194895     6    157    0    0    0
C 947.12555038 -46.03816997 70.59844971     1    157   161   162   163
H 945.66164791 -45.18014870 71.81536705     6    160    0    0    0
H 948.50505620 -44.72538637 70.04786667     6    160    0    0    0
H 948.02009464 -47.29687464 72.14866983     6    160    0    0    0
H 955.37744744 -81.12171634 52.14788040     6     165    0    0    0
C 955.99532367 -79.59865237 53.33672836     1     164    166    167    168
H 954.60162660 -79.36658997 54.86926313     6     165    0    0    0
H 957.87281893 -80.23217515 54.14967507     6     165    0    0    0
C 956.14109515 -76.93279520 52.18193339     2     165    169    170    171
H 957.30098615 -76.86816827 50.46112187     6     168    0    0    0
H 954.34259534 -76.36425648 51.47647105     6     168    0    0    0
C 957.00964491 -74.71793124 53.87534319     2     168    172   173   174
H 955.94102637 -74.79023376 55.56541377     6     171    0    0    0
H 958.89924191 -74.96165705 54.49973590     6     171    0    0    0
C 956.73900395 -72.17587033 52.33464468     2     171   175   176   177
H 957.90257392 -72.38244039 50.56305509     6    174    0    0    0
H 954.84695943 -71.66588410 51.50879833     6    174    0    0    0
C 957.51855053 -70.06759402 53.97459690     2    174   178   179   180
H 956.27644623 -69.71575717 55.51440651     6    177    0    0    0
H 959.41176328 -70.38284261 54.70843406     6    177    0    0    0
C 957.34380191 -67.35566627 52.68016839     2    177   181   182   183
H 958.29702248 -67.59226084 50.74580042     6    180    0    0    0
H 955.46200785 -67.15610464 51.94252201     6    180    0    0    0
C 958.26062651 -65.12436485 54.35846561     2    180   184   185   186
H 957.18556243 -65.08834018 56.13447845     6    183    0    0    0
H 960.19366476 -65.61854538 54.98945382     6    183    0    0    0
C 958.27854333 -62.72819483 52.94295942     2    183   187   188   189
H 959.80052608 -62.86355083 51.42351150     6    186    0    0    0
H 956.61294921 -62.11128689 52.14070378     6    186    0    0    0
C 959.15603146 -60.38805221 54.37764504     2    186   190   191   192
H 957.86578021 -59.73452360 55.86383675     6    189    0    0    0
H 960.90043022 -60.62112278 55.35914515     6    189    0    0    0
C 959.66543287 -58.29368857 52.26363450     2    189   193   194   195
H 961.25021781 -58.81372536 50.92159666     6    192    0    0    0
H 957.87458433 -57.81718162 51.21088882     6    192    0    0    0
C 960.32058182 -55.81414863 53.42153100     2    192   196   197   198
H 958.75825760 -54.83753818 54.31662973     6    195    0    0    0
H 961.72792749 -56.10431281 54.95976851     6    195    0    0    0
C 961.05541386 -53.78042503 51.43140143     1    195   199   200   201
H 959.49744675 -52.80032974 50.66357933     6    198    0    0    0
H 962.49097715 -54.35264418 50.02683018     6    198    0    0    0
H 961.83549170 -52.04618492 52.25610827     6    198    0    0    0
H 939.46514889 -74.50179500 54.16242586     6     203    0    0    0
C 941.57704696 -74.74063209 54.04179920     1     202    204    205    206
H 941.97911008 -72.76607055 53.49715095     6     203    0    0    0
H 942.29461739 -75.33515341 56.00554533     6     203    0    0    0
C 942.73802853 -76.55735876 51.99227814     2     203    207    208    209
H 944.29896164 -75.67204411 50.99769771     6     206    0    0    0
H 943.36127669 -78.25759773 53.05480859     6     206    0    0    0
C 940.94414435 -77.32592156 49.80509606     2     206    210   211   212
H 942.09413483 -78.18202102 48.31466669     6     209    0    0    0
H 939.43218702 -78.45246530 50.36152579     6     209    0    0    0
C 939.80892078 -75.04196442 48.48188639     2     209   213   214   215
H 938.58658702 -74.00029787 49.58884877     6    212    0    0    0
H 941.27255867 -73.63335104 48.17965082     6    212    0    0    0
C 938.24930439 -75.71487980 45.97101940     2    212   216   217   218
H 939.41616222 -76.76266912 44.58784032     6    215    0    0    0
H 936.76551531 -76.97830740 46.56944152     6    215    0    0    0
C 937.24470650 -73.43370767 44.52143567     2    215   219   220   221
H 936.52100550 -71.97503165 45.84354947     6    218    0    0    0
H 938.80983810 -72.67931884 43.44840476     6    218    0    0    0
C 935.44508245 -74.13926484 42.47185051     2    218   222   223   224
H 936.13495331 -75.83609569 41.40890303     6    221    0    0    0
H 933.63724750 -74.54913488 43.36444345     6    221    0    0    0
C 935.24692396 -72.13664043 40.50840022     2    221   225   226   227
H 934.63671184 -70.47698659 41.43456231     6    224    0    0    0
H 937.22890999 -71.83220837 39.71113746     6    224    0    0    0
C 933.29374865 -72.62051207 38.44248273     2    224   228   229   230
H 933.74613097 -74.31400684 37.37282773     6    227    0    0    0
H 931.46580670 -73.18579305 39.32431151     6    227    0    0    0
C 932.90290284 -70.55803201 36.38806531     2    227   231   232   233
H 932.30597306 -68.67275459 37.16231439     6    230    0    0    0
H 934.75991540 -70.22661193 35.49337022     6    230    0    0    0
C 931.01742053 -71.27638824 34.38764882     2    230   234   235   236
H 930.65305480 -69.49527840 33.12825343     6    233    0    0    0
H 931.88199658 -72.76226765 33.26910905     6    233    0    0    0
C 928.43196915 -72.22713237 35.40640680     1    233   237   238   239
H 927.11867178 -72.32230390 33.90082309     6    236    0    0    0
H 927.91887617 -70.90109341 36.95432105     6    236    0    0    0
H 928.36189530 -74.04135564 36.30170073     6    236    0    0    0
H 920.04787039 -82.13023356 72.24134326     6     241    0    0    0
C 920.57596576 -83.00315410 70.36966755     1     240    242    243    244
H 918.81639692 -83.17015901 69.48158716     6     241    0    0    0
H 921.58048676 -81.67719779 69.32979943     6     241    0    0    0
C 921.83266789 -85.53393964 70.65268355     2     241    245    246    247
H 920.57117045 -86.75117190 71.80770182     6     244    0    0    0
H 922.10340094 -86.34396294 68.78368899     6     244    0    0    0
C 924.55414386 -85.42063839 71.70582227     2     244    248   249   250
H 925.58077559 -87.16889500 71.45103039     6     247    0    0    0
H 925.81480493 -83.94964663 70.80171575     6     247    0    0    0
C 924.61533598 -85.09519701 74.61869439     2     247   251   252   253
H 926.46759273 -84.46789924 75.35866829     6    250    0    0    0
H 923.21481469 -83.79637306 75.34311807     6    250    0    0    0
C 924.02494447 -87.61455195 75.94021641     2    250   254   255   256
H 922.24196418 -88.54972880 75.27852394     6    253    0    0    0
H 925.56949967 -88.93603548 75.89349930     6    253    0    0    0
C 923.69859575 -87.19032588 78.81389720     2    253   257   258   259
H 925.51653073 -86.77882142 79.64553555     6    256    0    0    0
H 922.34212258 -85.68100055 79.14552573     6    256    0    0    0
C 922.82164202 -89.80716386 80.13274183     2    256   260   261   262
H 920.95095343 -90.31433221 79.41143228     6    259    0    0    0
H 923.92641831 -91.37068276 79.17018830     6    259    0    0    0
C 922.87501618 -89.97054771 83.02428599     2    259   263   264   265
H 924.61078808 -89.10286931 83.81046883     6    262    0    0    0
H 921.39395710 -88.61846142 83.60669458     6    262    0    0    0
C 922.53337231 -92.75194788 84.24194698     2    262   266   267   268
H 921.63652061 -92.50674091 86.12757034     6    265    0    0    0
H 920.89237142 -93.48696269 83.09874927     6    265    0    0    0
C 924.84975595 -94.44114893 83.88454436     2    265   269   270   271
H 925.42977744 -94.70540835 82.01259904     6    268    0    0    0
H 926.36522193 -93.54956102 84.77694900     6    268    0    0    0
C 924.24898142 -97.12509615 84.98894377     2    268   272   273   274
H 923.51814921 -96.84155611 86.94633538     6    271    0    0    0
H 922.72628899 -97.84064084 83.82932004     6    271    0    0    0
C 926.25232055 -99.15608463 85.12835172     1    271   275   276   277
H 926.97602033 -99.55964101 83.03953239     6    274    0    0    0
H 925.63650019 -101.02719465 85.86920000     6    274    0    0    0
H 927.90682847 -98.37516788 85.99783110     6    274    0    0    0
H 943.59796862 -81.55698400 56.65830130     6     279    0    0    0
C 942.13546172 -83.11174139 56.35599388     1     278    280    281    282
H 942.53559577 -84.09103153 54.67172002     6     279    0    0    0
H 942.38492311 -84.33024522 57.96307288     6     279    0    0    0
C 939.61735756 -81.63172168 56.41612689     2     279    283    284    285
H 939.63276121 -80.21755149 57.73796019     6     282    0    0    0
H 939.50349445 -80.70435159 54.47802361     6     282    0    0    0
C 937.28776883 -83.27777715 56.57511513     2     282    286   287   288
H 937.40685417 -84.57981727 54.89396648     6     285    0    0    0
H 937.43787308 -84.43256689 58.23671034     6     285    0    0    0
C 934.73935067 -82.01668187 56.32465527     2     285   289   290   291
H 934.33522203 -80.96035108 57.95434482     6    288    0    0    0
H 934.63711998 -80.82194886 54.56966927     6    288    0    0    0
C 932.53322494 -83.95810898 56.14974845     2    288   292   293   294
H 932.92230767 -85.40645620 54.62268383     6    291    0    0    0
H 932.27625163 -85.20534701 57.93535232     6    291    0    0    0
C 930.14740971 -82.72640263 55.31905633     2    291   295   296   297
H 929.86327769 -81.08328476 56.60164663     6    294    0    0    0
H 930.51801696 -81.97045530 53.37996950     6    294    0    0    0
C 927.82189693 -84.37415262 55.26657960     2    294   298   299   300

   17   -1830.5188003548      9.29E-09 Convergence criterion met
 Total energy in the final basis set = -1828.27052381
 Total job time:  16.76s(wall), 29.45s(cpu)
        *  Thank you very much for using Q-Chem.  Have a nice day.  *

User input: 2 of 2

                  Welcome to Q-Chem
     A Quantum Leap Into The Future Of Chemistry

 Q-Chem 5.4 (devel), Q-Chem, Inc., Pleasanton, CA (2021)

 E. Epifanovsky,  A. T. B. Gilbert,  Xintian Feng,  Joonho Lee,  Yuezhi Mao,
 N. Mardirossian,  P. Pokhilko,  A. White,  M. Wormit,  M. P. Coons,
 A. L. Dempwolff,  Zhengting Gan,  D. Hait,  P. R. Horn,  L. D. Jacobson,
 I. Kaliman,  J. Kussmann,  A. W. Lange,  Ka Un Lao,  D. S. Levine,  Jie Liu,
 S. C. McKenzie,  A. F. Morrison,  K. Nanda,  F. Plasser,  D. R. Rehn,
 M. L. Vidal,  Zhi-Qiang You,  Ying Zhu,  B. Alam,  B. Albrecht,
 A. Aldossary,  E. Alguire,  J. H. Andersen,  D. Barton,  K. Begam,  A. Behn,
 Y. A. Bernard,  E. J. Berquist,  H. Burton,  A. Carreras,  K. Carter-Fenk,
 R. Chakraborty,  A. D. Chien,  K. D. Closser,  V. Cofer-Shabica,
 S. Dasgupta,  Jia Deng,  M. de Wergifosse,  M. Diedenhofen,  Hainam Do,
 S. Ehlert,  Po-Tung Fang,  S. Fatehi,  Qingguo Feng,  T. Friedhoff,
 J. Gayvert,  Qinghui Ge,  G. Gidofalvi,  M. Goldey,  J. Gomes,
 C. Gonzalez-Espinoza,  S. Gulania,  A. Gunina,  M. W. D. Hanson-Heine,
 P. H. P. Harbach,  A. W. Hauser,  M. F. Herbst,  M. Hernandez Vera,
 M. Hodecker,  Z. C. Holden,  S. Houck,  Xunkun Huang,  Kerwin Hui,
 B. C. Huynh,  M. Ivanov,  Hyunjun Ji,  Hanjie Jiang,  B. Kaduk,  S. Kaehler,
 K. Khistyaev,  Jaehoon Kim,  P. Klunzinger,  Z. Koczor-Benda,
 Joong Hoon Koh,  D. Kosenkov,  L. Koulias,  T. Kowalczyk,  C. M. Krauter,
 K. Kue,  A. Kunitsa,  T. Kus,  A. Landau,  K. V. Lawler,  D. Lefrancois,
 S. Lehtola,  Rain Li,  Yi-Pei Li,  Jiashu Liang,  M. Liebenthal,
 Hung-Hsuan Lin,  You-Sheng Lin,  Fenglai Liu,  Kuan-Yu Liu,
 M. Loipersberger,  A. Luenser,  A. Manjanath,  P. Manohar,  E. Mansoor,
 S. F. Manzer,  Shan-Ping Mao,  A. V. Marenich,  T. Markovich,  S. Mason,
 S. A. Maurer,  P. F. McLaughlin,  M. F. S. J. Menger,  J.-M. Mewes,
 S. A. Mewes,  P. Morgante,  J. W. Mullinax,  K. J. Oosterbaan,  G. Paran,
 Alexander C. Paul,  Suranjan K. Paul,  F. Pavosevic,  Zheng Pei,  S. Prager,
 E. I. Proynov,  E. Ramos,  B. Rana,  A. E. Rask,  A. Rettig,  R. M. Richard,
 F. Rob,  E. Rossomme,  T. Scheele,  M. Scheurer,  M. Schneider,
 N. Sergueev,  S. M. Sharada,  W. Skomorowski,  D. W. Small,  C. J. Stein,
 Yu-Chuan Su,  E. J. Sundstrom,  Zhen Tao,  J. Thirman,  T. Tsuchimochi,
 N. M. Tubman,  S. P. Veccham,  O. Vydrov,  J. Wenzel,  J. Witte,  A. Yamada,
 Kun Yao,  S. Yeganeh,  S. R. Yost,  A. Zech,  Igor Ying Zhang,  Xing Zhang,
 Yu Zhang,  D. Zuev,  A. Aspuru-Guzik,  A. T. Bell,  N. A. Besley,
 K. B. Bravaya,  B. R. Brooks,  D. Casanova,  Jeng-Da Chai,  S. Coriani,
 C. J. Cramer,  A. E. DePrince, III,  R. A. DiStasio Jr.,  A. Dreuw,
 B. D. Dunietz,  T. R. Furlani,  W. A. Goddard III,  S. Grimme,
 S. Hammes-Schiffer,  T. Head-Gordon,  W. J. Hehre,  Chao-Ping Hsu,
 T.-C. Jagau,  Yousung Jung,  A. Klamt,  Jing Kong,  D. S. Lambrecht,
 WanZhen Liang,  N. J. Mayhall,  C. W. McCurdy,  J. B. Neaton,
 C. Ochsenfeld,  J. A. Parkhill,  R. Peverati,  V. A. Rassolov,  Yihan Shao,
 L. V. Slipchenko,  T. Stauch,  R. P. Steele,  J. E. Subotnik,
 A. J. W. Thom,  A. Tkatchenko,  D. G. Truhlar,  T. Van Voorhis,
 T. A. Wesolowski,  K. B. Whaley,  H. L. Woodcock III,  P. M. Zimmerman,
 S. Faraji,  P. M. W. Gill,  M. Head-Gordon,  J. M. Herbert,  A. I. Krylov

 Additional authors for Version 5.4.1:
 S. Kotaru,  Shaozhi Li,  Xiangyuan Li,  F. Matz,  A. Molle,  Haisheng Ren,
 Yingli Su,  Hung-Yi Tsai,  C. Utku,  Fang Wang

 Contributors to earlier versions of Q-Chem not listed above:
 R. D. Adamson,  B. Austin,  R. Baer,  J. Baker,  G. J. O. Beran,
 K. Brandhorst,  S. T. Brown,  E. F. C. Byrd,  A. K. Chakraborty,
 G. K. L. Chan,  Chun-Min Chang,  Yunqing Chen,  C.-L. Cheng,
 Siu Hung Chien,  D. M. Chipman,  D. L. Crittenden,  H. Dachsel,
 R. J. Doerksen,  A. D. Dutoi,  R. G. Edgar,  J. Fosso-Tande,
 L. Fusti-Molnar,  D. Ghosh,  A. Ghysels,  A. Golubeva-Zadorozhnaya,
 J. Gonthier,  M. S. Gordon,  S. R. Gwaltney,  G. Hawkins,  J. E. Herr,
 A. Heyden,  S. Hirata,  E. G. Hohenstein,  G. Kedziora,  F. J. Keil,
 C. Kelley,  Jihan Kim,  R. A. King,  R. Z. Khaliullin,  P. P. Korambath,
 W. Kurlancheek,  A. Laurent,  A. M. Lee,  M. S. Lee,  S. V. Levchenko,
 Ching Yeh Lin,  D. Liotard,  E. Livshits,  R. C. Lochan,  I. Lotan,
 L. A. Martinez-Martinez,  P. E. Maslen,  N. Nair,  D. P. O'Neill,
 D. Neuhauser,  E. Neuscamman,  C. M. Oana,  R. Olivares-Amaya,  R. Olson,
 T. M. Perrine,  B. Peters,  P. A. Pieniazek,  A. Prociuk,  Y. M. Rhee,
 J. Ritchie,  M. A. Rohrdanz,  E. Rosta,  N. J. Russ,  H. F. Schaefer III,
 M. W. Schmidt,  N. E. Schultz,  S. Sharma,  N. Shenvi,  C. D. Sherrill,
 A. C. Simmonett,  A. Sodt,  T. Stein,  D. Stuck,  K. S. Thanthiriwatte,
 V. Vanovschi,  L. Vogt,  Tao Wang,  A. Warshel,  M. A. Watson,
 C. F. Williams,  Q. Wu,  X. Xu,  Jun Yang,  W. Zhang,  Yan Zhao

 Please cite Q-Chem as follows:
 Y. Shao et al., Mol. Phys. 113, 184-215 (2015)
 DOI: 10.1080/00268976.2014.952696

 Q-Chem 5.4.1 for Intel X86 EM64T Linux

 Parts of Q-Chem use Armadillo 9.900.5 (Nocturnal Misbehaviour).
 http://arma.sourceforge.net/

 Q-Chem begins on Wed Jun  1 23:30:40 2022

 Host: p09r14n13.grace.hpc.yale.internal
0

     Scratch files written to /home/tl686/scratch60/qchem_dev/scratch/qchem244679//
 Processing $rem in /home/tl686/qchem_dev/qchem/config/preferences:
 Processing $rem in /home/tl686/.qchemrc:
Applying user defined connections for MM calculations
The previous job contains 0 fragments, simply inherited here

 Checking the input file for inconsistencies... 	...done.

--------------------------------------------------------------
User input:
--------------------------------------------------------------

$molecule
READ
$end

$qm_atoms
1:11
$end

$force_field_params
NumAtomTypes 3
AtomType -1   0.0238     3.11   0.2868
AtomType -2   0.07124    3.30   0.6597
AtomType -3  -0.0760     3.09   0.1434
$end

$rem
     JOBTYPE  freq
     METHOD   bp86
     BASIS    def2-msvp
     MAX_SCF_CYCLES   800
     INPUT_BOHR TRUE
     SYM_IGNORE TRUE
     SCF_GUESS     read
     user_connect            true
     qm_mm_interface         ONIOM
     force_field             oplsaa
$end

--------------------------------------------------------------

    3   -1830.5188003551      6.43E-09 Convergence criterion met
 Total energy in the final basis set = -1828.27052381

                    Orbital Energies (a.u.)
 --------------------------------------------------------------

 Alpha MOs
 -- Occupied --
******** -29.6324 -25.5923 -25.5815 -25.5742 -18.8941 -18.8845 -18.8820
-18.8735 -18.8710 -10.0555 -10.0540 -10.0471 -10.0425 -10.0385  -3.3154
 -2.1504  -2.1300  -2.1148  -1.0914  -1.0544  -1.0465  -1.0446  -1.0321
 -0.5694  -0.5275  -0.5197  -0.5139  -0.5121  -0.4582  -0.4546  -0.4505
 -0.4346  -0.4327  -0.4222  -0.4194  -0.4152  -0.4122  -0.4102  -0.4035
 -0.4018  -0.3941  -0.3936  -0.3807  -0.2743  -0.2628  -0.2280  -0.2201

          Ground-State Mulliken Net Atomic Charges

     Atom                 Charge (a.u.)
  ----------------------------------------
      1 Fe                   -0.475889
      2 C                     0.204561
      3 C                     0.185269
      4 C                     0.191302
      5 C                     0.229614
      6 C                     0.216571
      7 O                    -0.124932
      8 O                    -0.063481
      9 O                    -0.121844
     10 O                    -0.134245
     11 O                    -0.106927
  ----------------------------------------
  Sum of atomic charges =     0.000000

                    Cartesian Multipole Moments
 -----------------------------------------------------------------
    Charge (ESU x 10^10)
                -0.0000
    Dipole Moment (Debye)
         X       0.0906406589      Y       0.3942469535      Z      -0.3941591762
       Tot       0.5648077952
    Quadrupole Moments (Debye-Ang)
        XX      19.5738     XY     191.3035     YY     -92.4506
        XZ    -191.7280     YZ      24.6271     ZZ     -97.9409

 Frequency:      -199.41                -196.22                  50.74
 Force Cnst:      0.3800                 0.3683                 0.0233
 Red. Mass:      16.2211                16.2358                15.3278
 IR Intens:        0.000                  0.000                  0.000
 Frequency:        98.11                 113.62                 128.95
 Force Cnst:      0.0879                 0.1257                 0.1585
 Red. Mass:      15.5072                16.5320                16.1818
 IR Intens:        0.000                  0.000                  0.000
 Frequency:       139.78                 281.10                 311.18
 Force Cnst:      0.1921                 0.6037                 0.7365
 Red. Mass:      16.6868                12.9678                12.9089
 IR Intens:        0.000                  0.000                  0.000
 Frequency:       379.13                 387.25                 416.18
 Force Cnst:      1.0821                 1.2700                 1.3841
 Red. Mass:      12.7771                14.3735                13.5626
 IR Intens:        0.000                  0.000                  0.000
 Frequency:       424.51                 434.91                 458.68
 Force Cnst:      1.4718                 1.5868                 1.8029
 Red. Mass:      13.8622                14.2387                14.5452
 IR Intens:        0.000                  0.000                  0.000
 Frequency:       471.37                 498.83                 536.67
 Force Cnst:      2.0598                 2.0189                 2.2130
 Red. Mass:      15.7344                13.7711                13.0408
 IR Intens:        0.000                  0.000                  0.000
 Frequency:       546.82                 610.42                 640.84
 Force Cnst:      2.2769                 3.7757                 3.9065
 Red. Mass:      12.9243                17.1984                16.1450
 IR Intens:        0.000                  0.000                  0.000
 Frequency:       649.63                1878.12                1902.05
 Force Cnst:      3.8634                27.7346                28.4300
 Red. Mass:      15.5375                13.3453                13.3378
 IR Intens:        0.000                  0.000                  0.000
 Frequency:      1999.50                2046.89                2357.62
 Force Cnst:     31.4660                32.9180                43.7631
 Red. Mass:      13.3583                13.3350                13.3632
 IR Intens:        0.000                  0.000                  0.000

 STANDARD THERMODYNAMIC QUANTITIES AT   298.15 K  AND     1.00 ATM

   This Molecule has  2 Imaginary Frequencies
   Zero point vibrational energy:       25.393 kcal/mol

   Atom    1 Element Fe Has Mass   55.93490
   Atom    2 Element C  Has Mass   12.00000
   Atom    3 Element C  Has Mass   12.00000
   Atom    4 Element C  Has Mass   12.00000
   Atom    5 Element C  Has Mass   12.00000
   Atom    6 Element C  Has Mass   12.00000
   Atom    7 Element O  Has Mass   15.99491
   Atom    8 Element O  Has Mass   15.99491
   Atom    9 Element O  Has Mass   15.99491
   Atom   10 Element O  Has Mass   15.99491
   Atom   11 Element O  Has Mass   15.99491
   Molecular Mass:   195.909450 amu
   Principal axes and moments of inertia in amu*Bohr^2:
                             1           2           3
    Eigenvalues --     1945.11244  2238.02379  2365.51182
          X              -0.19341     0.97161     0.13624
          Y               0.14490    -0.10905     0.98342
          Z               0.97036     0.20995    -0.11969
   Rotational Symmetry Number is   1
   The Molecule is an Asymmetric Top
   Translational Enthalpy:        0.889 kcal/mol
   Rotational Enthalpy:           0.889 kcal/mol
   Vibrational Enthalpy:         30.119 kcal/mol
   gas constant (RT):             0.592 kcal/mol
   Translational Entropy:        41.722  cal/mol.K
   Rotational Entropy:           30.710  cal/mol.K
   Vibrational Entropy:          29.298  cal/mol.K

   Total Enthalpy:               32.489 kcal/mol
   Total Entropy:               101.731  cal/mol.K

 Total job time:  125.21s(wall), 247.14s(cpu)
        *  Thank you very much for using Q-Chem.  Have a nice day.  *
