 Q-Chem 5.4 (devel), Q-Chem, Inc., Pleasanton, CA (2021)
 Q-Chem 5.4.1 for Intel X86 EM64T Linux

User input:
--------------------------------------------------------------
$molecule
0   1
 Fe 362.93354311 11.80412399 -39.84825496    -1  0   0   0   0
C 360.51349417 13.32613771 -41.80187058    -2  0   0   0   0
C 366.36924734 11.55416272 -40.62894191    -2  0   0   0   0
C 363.42707023 14.91640202 -38.67059591    -2  0   0   0   0
C 362.23225595 10.51764064 -36.77527467    -2  0   0   0   0
C 362.28378500 8.85209926 -41.35863278    -2  0   0   0   0
O 359.03493658 14.15538258 -43.23631126    -3  0   0   0   0
O 368.69440381 11.44469988 -40.94482895    -3  0   0   0   0
O 364.09177115 16.88923879 -37.82496317    -3  0   0   0   0
O 361.47719617 9.33869312 -35.06379671    -3  0   0   0   0
O 362.01289210 7.05516689 -42.67055801    -3  0   0   0   0
H 350.72376870 37.44312939 -43.70972402      6     13    0    0    0
C 349.51912931 36.50328893 -45.18023605     1     12    14    15    16
H 348.51551799 38.00319957 -45.91687102     6     13    0    0    0
H 350.54707615 35.50971172 -46.55371761     6     13    0    0    0
C 347.81124845 34.69904157 -43.63924993     2     13    17    18    19
H 346.42150507 35.81845395 -42.48676080     6     16    0    0    0
H 346.71354183 33.64291151 -45.07047223     6     16    0    0    0
C 348.97483082 32.88096957 -41.71923072     2     16    20   21   22
H 350.74597764 31.98061773 -42.64270625     6     19    0    0    0
H 349.80572943 34.04935864 -40.15859006     6     19    0    0    0
C 347.09719135 30.98666592 -40.44325619     2     19   23   24   25
H 345.50601181 31.96669735 -39.67504181     6    22    0    0    0
H 346.63104809 29.87281337 -42.06263818     6    22    0    0    0
C 348.48212593 29.39016353 -38.35458642     2    22   26   27   28
H 350.24971574 28.47338220 -38.99981256     6    25    0    0    0
H 348.81688684 30.42070205 -36.61007825     6    25    0    0    0
C 346.86740423 27.09898004 -37.42173100     2    25   29   30   31
H 345.08243113 27.77649832 -36.87631673     6    28    0    0    0
H 346.27072253 25.91647827 -39.12846830     6    28    0    0    0
C 348.17980880 25.63806943 -35.43078970     2    28   32   33   34
H 350.10450519 25.34056546 -35.87053155     6    31    0    0    0
H 348.04768984 26.73997883 -33.56575056     6    31    0    0    0
C 346.63635750 23.15098384 -35.19933065     2    31   35   36   37
H 344.66569852 23.70294037 -35.04857132     6    34    0    0    0
H 346.49438843 21.99981728 -36.98777481     6    34    0    0    0
C 347.44772688 21.79543825 -32.86153611     2    34   38   39   40
H 349.45186114 21.54480400 -32.79168947     6    37    0    0    0
H 346.99169781 23.13801346 -31.42865920     6    37    0    0    0
C 345.91405919 19.29802875 -32.48561113     2    37   41   42   43
H 343.95205373 19.64314983 -33.17004220     6    40    0    0    0
H 346.65215895 17.50913761 -33.36259256     6    40    0    0    0
C 345.96333714 18.30188994 -29.78088731     2    40   44   45   46
H 347.98419758 18.02598418 -29.47726035     6    43    0    0    0
H 345.16129022 19.76304895 -28.53163938     6    43    0    0    0
C 344.56540463 15.78349638 -29.46540403     1    43   47   48   49
H 342.49412081 16.18595659 -29.39548788     6    46    0    0    0
H 345.04129272 14.78835749 -27.65854980     6    46    0    0    0
H 345.06755112 14.49818805 -31.15605452     6    46    0    0    0
H 353.28866819 8.02868131 -43.67157559     6     51    0    0    0
C 353.39166658 7.92434192 -41.66788115     1     50    52    53    54
H 351.41533445 7.73229959 -41.07316200     6     51    0    0    0
H 354.40267303 6.25938915 -41.05493328     6     51    0    0    0
C 354.71893005 10.29839036 -40.86157590     2     51    55    56    57
H 356.74561499 10.21967761 -41.28956541     6     54    0    0    0
H 353.78509241 11.81913551 -41.88440881     6     54    0    0    0
C 354.31122778 10.84998292 -37.98889137     2     54    58   59   60
H 355.15257736 9.23968053 -37.04673798     6     57    0    0    0
H 355.46514277 12.45157183 -37.49830338     6     57    0    0    0
C 351.68523632 11.36742963 -36.84404873     2     57   61   62   63
H 350.77947155 12.81357366 -37.94030965     6    60    0    0    0
H 350.52427284 9.74500148 -37.31403413     6    60    0    0    0
C 351.66175630 11.91559160 -33.89083989     2    60   64   65   66
H 353.01526537 10.60114496 -32.95369890     6    63    0    0    0
H 352.52454878 13.69737608 -33.59357718     6    63    0    0    0
C 348.93045644 11.54020021 -32.74280816     2    63   67   68   69
H 348.94001059 12.31322812 -30.80103751     6    66    0    0    0
H 347.52097747 12.50953784 -33.90104771     6    66    0    0    0
C 348.20445280 8.82130631 -32.57991110     2    66   70   71   72
H 348.18866878 8.10983751 -34.49318465     6    69    0    0    0
H 349.69815388 7.72732540 -31.66672657     6    69    0    0    0
C 345.62575824 8.14452805 -31.50995592     2    69   73   74   75
H 345.29483238 9.27627755 -29.82980786     6    72    0    0    0
H 344.30097339 9.00843533 -32.95258278     6    72    0    0    0
C 345.14239705 5.32130764 -31.52648459     2    72   76   77   78
H 345.27224562 4.72328626 -33.41493349     6    75    0    0    0
H 346.46490869 4.08900798 -30.74028368     6    75    0    0    0
C 342.58709126 4.64756395 -30.61513961     2    75   79   80   81
H 342.62519699 4.48949798 -28.46056070     6    78    0    0    0
H 341.21221837 6.13844431 -30.81671314     6    78    0    0    0
C 341.49835946 2.34120609 -31.95174131     2    78   82   83   84
H 341.52889874 2.45601450 -33.87949220     6    81    0    0    0
H 342.75619125 0.73785352 -31.46975200     6    81    0    0    0
C 338.98523624 1.71673489 -30.80546757     1    81   85   86   87
H 338.27937628 -0.11076651 -31.34215528     6    84    0    0    0
H 337.32653861 2.93190133 -31.06758396     6    84    0    0    0
H 339.04885750 1.55069529 -28.76205743     6    84    0    0    0
H 343.45055202 43.10994298 -25.19055044     6     89    0    0    0
C 341.59068504 42.42142758 -24.68289539     1     88    90    91    92
H 341.61737856 42.35665523 -22.62952064     6     89    0    0    0
H 340.20719099 43.60169609 -25.47950263     6     89    0    0    0
C 341.32687227 39.71894756 -25.62803293     2     89    93    94    95
H 341.81457744 39.29420891 -27.60911894     6     92    0    0    0
H 342.76406676 38.72755681 -24.41343378     6     92    0    0    0
C 338.59747221 38.56441090 -24.99012868     2     92    96   97   98
H 338.09684304 38.58813203 -22.96198978     6     95    0    0    0
H 337.09383476 39.66453797 -25.88919644     6     95    0    0    0
C 338.38671860 35.79453682 -25.79005063     2     95   99   100   101
H 338.56207081 35.50535209 -27.84400792     6    98    0    0    0
H 339.96272427 34.79414144 -24.78445645     6    98    0    0    0
C 336.01039097 34.59870705 -24.78450536     2    98   102   103   104
H 335.97197904 34.57215753 -22.72730653     6    101    0    0    0
H 334.61180571 35.79934220 -25.66242068     6    101    0    0    0
C 335.76402019 31.90934908 -25.85442879     2    101   105   106   107
H 335.91571570 31.96932423 -27.92331092     6    104    0    0    0
H 337.23737148 30.60174853 -25.20646081     6    104    0    0    0
C 333.27146636 30.85125218 -24.79086835     2    104   108   109   110
H 333.55350382 30.93668044 -22.78282534     6    107    0    0    0
H 331.73769376 32.10913886 -25.32332671     6    107    0    0    0
C 332.88507486 28.13586170 -25.69473522     2    107   111   112   113
H 332.88898199 27.83387685 -27.71873123     6    110    0    0    0
H 334.42878373 27.13969704 -24.98802130     6    110    0    0    0
C 330.27568996 27.11369279 -24.65991363     2    110   114   115   116
H 330.43998564 26.89420751 -22.62762208     6    113    0    0    0
H 328.77580346 28.59055263 -24.83926661     6    113    0    0    0
C 329.22822549 24.61513259 -25.53916525     2    113   117   118   119
H 328.94980874 24.81909885 -27.58685610     6    116    0    0    0
H 330.72409832 23.09763912 -25.48414187     6    116    0    0    0
C 327.01464062 23.47952327 -24.22691555     2    116   120   121   122
H 326.45412140 21.75919251 -25.44819208     6    119    0    0    0
H 327.58955073 22.66946253 -22.43261259     6    119    0    0    0
C 324.71518742 25.11413874 -24.14628555     1    119   123   124   125
H 322.94288882 23.97304080 -24.14840263     6    122    0    0    0
H 324.73640318 26.56340965 -25.66754203     6    122    0    0    0
H 324.75908436 25.89089016 -22.31630759     6    122    0    0    0
H 358.40170654 34.83846471 -16.94049995     6     127    0    0    0
C 359.31512336 32.90812851 -17.23230481     1     126    128    129    130
H 359.77269042 32.17538658 -15.41301200     6     127    0    0    0
H 357.73604994 31.77483933 -17.91928258     6     127    0    0    0
C 361.53180862 33.08557689 -19.17853161     2     127    131    132    133
H 360.52913859 33.48466729 -20.99742384     6     130    0    0    0
H 362.80011631 34.61592316 -18.88190048     6     130    0    0    0
C 363.30258841 30.79358998 -19.44092371     2     130    134   135   136
H 364.37194775 30.45986234 -17.60783747     6     133    0    0    0
H 362.24363414 29.15877667 -19.72080231     6     133    0    0    0
C 364.92475897 31.18499722 -21.71859058     2     133   137   138   139
H 363.65107993 31.45749139 -23.31580202     6    136    0    0    0
H 366.13752674 32.95597535 -21.39595518     6    136    0    0    0
C 366.84995568 29.07545944 -22.62080835     2    136   140   141   142
H 368.14179897 28.91618802 -21.11881334     6    139    0    0    0
H 366.06980084 27.23687755 -22.96075624     6    139    0    0    0
C 368.41783117 29.86211552 -24.91494469     2    139   143   144   145
H 367.13503473 30.11769227 -26.50214742     6    142    0    0    0
H 369.28561226 31.56301001 -24.62831243     6    142    0    0    0
C 370.30958341 27.74415368 -25.65687026     2    142   146   147   148
H 371.60239572 27.44386602 -24.02820500     6    145    0    0    0
H 369.32443310 25.88742763 -25.85050631     6    145    0    0    0
C 372.02063087 28.50401090 -28.03996162     2    145   149   150   151
H 370.98222445 29.25370139 -29.59695673     6    148    0    0    0
H 373.23986914 30.11460680 -27.31360514     6    148    0    0    0
C 373.47846646 26.29371228 -29.23839587     2    148   152   153   154
H 374.79565352 25.42839961 -27.89175466     6    151    0    0    0
H 372.29403104 24.89041090 -30.01184455     6    151    0    0    0
C 375.41008788 27.22460708 -31.33908685     2    151   155   156   157
H 374.41927936 27.58810230 -33.03467007     6    154    0    0    0
H 376.51604608 28.91338534 -30.86107136     6    154    0    0    0
C 377.28530746 25.09617757 -31.85764524     2    154   158   159   160
H 378.27919067 24.59338907 -30.20873787     6    157    0    0    0
H 376.50614714 23.32999714 -32.46898964     6    157    0    0    0
C 379.34234560 25.76631802 -34.09835586     1    157   161   162   163
H 381.03184793 24.56509391 -34.29466417     6    160    0    0    0
H 379.97927640 27.64860199 -33.95067923     6    160    0    0    0
H 378.52626372 25.55741245 -35.98305262     6    160    0    0    0
H 347.31497629 23.11848245 -4.28352555     6     165    0    0    0
C 348.15914644 23.61064974 -6.18341781     1     164    166    167    168
H 347.70771311 22.18868628 -7.56586046     6     165    0    0    0
H 347.51236525 25.50364812 -6.78891348     6     165    0    0    0
C 351.02546531 23.60068797 -5.85113263     2     165    169    170    171
H 351.43403762 24.85808678 -4.36483546     6     168    0    0    0
H 351.54856005 21.67250582 -5.08850805     6     168    0    0    0
C 352.56442451 24.58364870 -8.10135574     2     168    172   173   174
H 352.00836562 23.47254374 -9.73922937     6     171    0    0    0
H 352.00906711 26.56287255 -8.44973784     6     171    0    0    0
C 355.42863298 24.32123295 -7.77059189     2     171   175   176   177
H 356.17771096 25.38895081 -6.13738909     6    174    0    0    0
H 356.08922239 22.41454580 -7.42331934     6    174    0    0    0
C 356.92449462 24.95796417 -10.09201377     2    174   178   179   180
H 356.53863629 23.40615647 -11.39793503     6    177    0    0    0
H 356.12509479 26.50504168 -11.20992847     6    177    0    0    0
C 359.64673834 25.51629223 -9.42345852     2    177   181   182   183
H 359.84397230 27.12636970 -8.20093368     6    180    0    0    0
H 360.64794878 23.88120793 -8.72393588     6    180    0    0    0
C 361.40493538 26.02221298 -11.62402598     2    180   184   185   186
H 361.09138191 24.56466605 -13.00825068     6    183    0    0    0
H 361.24751039 27.80949147 -12.55566338     6    183    0    0    0
C 364.31560110 26.06645872 -10.80129739     2    183   187   188   189
H 364.40856570 27.11324624 -9.04538668     6    186    0    0    0
H 365.22253673 24.20276437 -10.32661497     6    186    0    0    0
C 365.81733416 27.60759064 -12.77449163     2    186   190   191   192
H 365.43659031 26.92927889 -14.56072961     6    189    0    0    0
H 365.38484668 29.61007426 -12.73501276     6    189    0    0    0
C 368.57152371 27.54719321 -12.44729924     2    189   193   194   195
H 369.04481233 27.79987131 -10.47329143     6    192    0    0    0
H 368.93390686 25.63456592 -12.79207457     6    192    0    0    0
C 370.15085251 29.40520238 -14.08760470     2    192   196   197   198
H 369.68163865 29.15909356 -16.02308960     6    195    0    0    0
H 369.59836507 31.28208152 -13.54463083     6    195    0    0    0
C 373.09550051 29.35210069 -13.51570390     1    195   199   200   201
H 373.50930135 30.22345907 -11.66799829     6    198    0    0    0
H 374.16181417 30.21129505 -14.95940917     6    198    0    0    0
H 373.95207980 27.44305896 -13.27937282     6    198    0    0    0
H 357.27512251 15.79317133 -8.59632282     6     203    0    0    0
C 355.49819040 15.79411546 -7.38064322     1     202    204    205    206
H 355.40075738 17.57486317 -6.23949186     6     203    0    0    0
H 353.67593030 15.78915114 -8.51001199     6     203    0    0    0
C 355.61165950 13.37999617 -5.95228470     2     203    207    208    209
H 357.45908155 13.46896620 -4.90136277     6     206    0    0    0
H 354.05469911 13.22565551 -4.77251468     6     206    0    0    0
C 355.44892890 10.97558159 -7.76749602     2     206    210   211   212
H 353.71300069 10.75668879 -8.72039384     6     209    0    0    0
H 356.99753398 11.17334998 -9.22201743     6     209    0    0    0
C 356.10551991 8.50110441 -6.37740725     2     209   213   214   215
H 358.30437096 8.55641082 -6.18859020     6    212    0    0    0
H 355.32174512 8.68051259 -4.52150837     6    212    0    0    0
C 355.28049334 6.08226089 -7.92679405     2    212   216   217   218
H 353.52040047 6.62746021 -8.94829897     6    215    0    0    0
H 356.62893366 6.00499330 -9.41758074     6    215    0    0    0
C 355.10097121 3.69240573 -6.26695229     2    215   219   220   221
H 356.98551218 3.30817765 -5.28968140     6    218    0    0    0
H 353.77330740 4.15574966 -4.81477592     6    218    0    0    0
C 354.14916337 1.30087712 -7.64118058     2    218   222   223   224
H 352.06154954 1.41998534 -8.05896484     6    221    0    0    0
H 355.12394992 1.20578002 -9.45070563     6    221    0    0    0
C 354.58906070 -1.10639710 -6.08823311     2    221   225   226   227
H 356.62078008 -1.37836735 -5.55491800     6    224    0    0    0
H 353.69752344 -0.91321498 -4.23301326     6    224    0    0    0
C 353.53039057 -3.42460948 -7.63958069     2    224   228   229   230
H 351.39005733 -3.44259571 -7.76108977     6    227    0    0    0
H 354.24993405 -3.40028658 -9.51648504     6    227    0    0    0
C 354.17491195 -5.84827410 -6.40513982     2    227   231   232   233
H 356.10413391 -5.99088478 -5.63191651     6    230    0    0    0
H 353.09031370 -6.07744025 -4.76796870     6    230    0    0    0
C 353.68761834 -8.00069776 -8.20797621     2    230   234   235   236
H 351.97672503 -7.61490809 -9.23606557     6    233    0    0    0
H 355.04261350 -7.95569137 -9.72867081     6    233    0    0    0
C 353.41417406 -10.50887625 -6.85919563     1    233   237   238   239
H 352.34534366 -11.88010521 -8.01775680     6    236    0    0    0
H 352.34192823 -10.52235183 -5.15073694     6    236    0    0    0
H 355.34418872 -11.20240384 -6.58339052     6    236    0    0    0
H 336.40800117 8.99906843 -31.55631262     6     241    0    0    0
C 337.70984188 10.64380508 -31.02771030     1     240    242    243    244
H 339.12214791 10.56679487 -32.59499108     6     241    0    0    0
H 336.72626353 12.39578491 -31.15493169     6     241    0    0    0
C 339.03326578 10.30684224 -28.34003449     2     241    245    246    247
H 339.84062671 8.42842847 -28.16670839     6     244    0    0    0
H 340.50898131 11.71680374 -27.97973488     6     244    0    0    0
C 337.14785510 10.46376361 -26.26482775     2     244    248   249   250
H 338.03975021 10.69918129 -24.36958971     6     247    0    0    0
H 336.23370132 12.22231601 -26.59007396     6     247    0    0    0
C 335.04478852 8.43409432 -26.17279003     2     247   251   252   253
H 333.36296070 9.28561360 -25.41225622     6    250    0    0    0
H 334.28816382 8.17956703 -28.02642810     6    250    0    0    0
C 336.01013841 6.14311710 -24.57613250     2    250   254   255   256
H 337.33422226 4.94462296 -25.63629046     6    253    0    0    0
H 336.72004712 6.75189639 -22.80546077     6    253    0    0    0
C 333.87983816 4.38839357 -23.62329664     2    253   257   258   259
H 334.43471920 3.02594234 -22.08417800     6    256    0    0    0
H 332.43230507 5.63069648 -22.96487119     6    256    0    0    0
C 332.65864007 2.81916339 -25.81072209     2    256   260   261   262
H 331.65559064 4.23894814 -26.76515755     6    259    0    0    0
H 333.88479997 2.28571079 -27.31551786     6    259    0    0    0
C 330.82333497 0.62175307 -25.14497478     2    259   263   264   265
H 331.21397132 -0.63951151 -23.51901711     6    262    0    0    0
H 329.10348104 1.45987739 -24.50625839     6    262    0    0    0
C 330.12417342 -0.86181208 -27.63966072     2    262   266   267   268
H 328.50060198 -2.14261157 -27.15352195     6    265    0    0    0
H 329.36188092 0.31545030 -29.23692213     6    265    0    0    0
C 332.38213434 -2.41030239 -28.73899096     2    265   269   270   271
H 334.14583434 -1.38601792 -29.42201315     6    268    0    0    0
H 332.98137616 -3.72442532 -27.28431405     6    268    0    0    0
C 331.65502301 -4.15630650 -30.89155532     2    268   272   273   274
H 333.11922582 -5.55510796 -31.07932747     6    271    0    0    0
H 329.97937857 -5.17073816 -30.27502547     6    271    0    0    0
C 331.38191747 -2.79534477 -33.34465276     1    271   275   276   277
H 329.70078390 -1.52620179 -33.35796148     6    274    0    0    0
H 331.23378714 -4.06226317 -34.88300003     6    274    0    0    0
H 333.14527729 -1.77952895 -33.80662310     6    274    0    0    0
H 347.09246525 28.09904368 -14.90540015     6     279    0    0    0
C 345.83343096 26.63231450 -14.29108691     1     278    280    281    282
H 345.42591730 26.91952135 -12.22293049     6     279    0    0    0
H 344.08509731 26.57187740 -15.14594849     6     279    0    0    0
C 346.91048933 23.84010433 -14.80533061     2     279    283    284    285
H 347.09800467 23.47833381 -16.78317634     6     282    0    0    0
H 348.89602776 24.00335303 -13.96957688     6     282    0    0    0
C 345.43662562 21.59070537 -13.62558545     2     282    286   287   288
H 344.80497718 21.92257767 -11.64474247     6     285    0    0    0
H 343.75882291 21.14432665 -14.68312843     6     285    0    0    0
C 347.27256453 19.15031133 -13.47575091     2     285   289   290   291
H 348.34703749 18.98596579 -15.21435593     6    288    0    0    0
H 348.74946412 19.46612111 -12.14474440     6    288    0    0    0
C 345.92333980 16.70726307 -12.61449570     2    288   292   293   294
H 344.64957867 17.26211827 -11.00583445     6    291    0    0    0
H 344.50112253 16.47532553 -13.96517258     6    291    0    0    0
C 347.60300340 14.34671529 -12.18753794     2    291   295   296   297
H 349.16249672 14.34891338 -13.59532048     6    294    0    0    0
H 348.38603534 14.85062824 -10.31578591     6    294    0    0    0
C 346.47551042 11.61013196 -12.15103942     2    294   298   299   300

   17   -1830.5080252679      5.58E-09 Convergence criterion met
 Total energy in the final basis set = -1828.26361011
 Total job time:  16.44s(wall), 29.35s(cpu)
        *  Thank you very much for using Q-Chem.  Have a nice day.  *

User input: 2 of 2

                  Welcome to Q-Chem
     A Quantum Leap Into The Future Of Chemistry

 Q-Chem 5.4 (devel), Q-Chem, Inc., Pleasanton, CA (2021)

 E. Epifanovsky,  A. T. B. Gilbert,  Xintian Feng,  Joonho Lee,  Yuezhi Mao,
 N. Mardirossian,  P. Pokhilko,  A. White,  M. Wormit,  M. P. Coons,
 A. L. Dempwolff,  Zhengting Gan,  D. Hait,  P. R. Horn,  L. D. Jacobson,
 I. Kaliman,  J. Kussmann,  A. W. Lange,  Ka Un Lao,  D. S. Levine,  Jie Liu,
 S. C. McKenzie,  A. F. Morrison,  K. Nanda,  F. Plasser,  D. R. Rehn,
 M. L. Vidal,  Zhi-Qiang You,  Ying Zhu,  B. Alam,  B. Albrecht,
 A. Aldossary,  E. Alguire,  J. H. Andersen,  D. Barton,  K. Begam,  A. Behn,
 Y. A. Bernard,  E. J. Berquist,  H. Burton,  A. Carreras,  K. Carter-Fenk,
 R. Chakraborty,  A. D. Chien,  K. D. Closser,  V. Cofer-Shabica,
 S. Dasgupta,  Jia Deng,  M. de Wergifosse,  M. Diedenhofen,  Hainam Do,
 S. Ehlert,  Po-Tung Fang,  S. Fatehi,  Qingguo Feng,  T. Friedhoff,
 J. Gayvert,  Qinghui Ge,  G. Gidofalvi,  M. Goldey,  J. Gomes,
 C. Gonzalez-Espinoza,  S. Gulania,  A. Gunina,  M. W. D. Hanson-Heine,
 P. H. P. Harbach,  A. W. Hauser,  M. F. Herbst,  M. Hernandez Vera,
 M. Hodecker,  Z. C. Holden,  S. Houck,  Xunkun Huang,  Kerwin Hui,
 B. C. Huynh,  M. Ivanov,  Hyunjun Ji,  Hanjie Jiang,  B. Kaduk,  S. Kaehler,
 K. Khistyaev,  Jaehoon Kim,  P. Klunzinger,  Z. Koczor-Benda,
 Joong Hoon Koh,  D. Kosenkov,  L. Koulias,  T. Kowalczyk,  C. M. Krauter,
 K. Kue,  A. Kunitsa,  T. Kus,  A. Landau,  K. V. Lawler,  D. Lefrancois,
 S. Lehtola,  Rain Li,  Yi-Pei Li,  Jiashu Liang,  M. Liebenthal,
 Hung-Hsuan Lin,  You-Sheng Lin,  Fenglai Liu,  Kuan-Yu Liu,
 M. Loipersberger,  A. Luenser,  A. Manjanath,  P. Manohar,  E. Mansoor,
 S. F. Manzer,  Shan-Ping Mao,  A. V. Marenich,  T. Markovich,  S. Mason,
 S. A. Maurer,  P. F. McLaughlin,  M. F. S. J. Menger,  J.-M. Mewes,
 S. A. Mewes,  P. Morgante,  J. W. Mullinax,  K. J. Oosterbaan,  G. Paran,
 Alexander C. Paul,  Suranjan K. Paul,  F. Pavosevic,  Zheng Pei,  S. Prager,
 E. I. Proynov,  E. Ramos,  B. Rana,  A. E. Rask,  A. Rettig,  R. M. Richard,
 F. Rob,  E. Rossomme,  T. Scheele,  M. Scheurer,  M. Schneider,
 N. Sergueev,  S. M. Sharada,  W. Skomorowski,  D. W. Small,  C. J. Stein,
 Yu-Chuan Su,  E. J. Sundstrom,  Zhen Tao,  J. Thirman,  T. Tsuchimochi,
 N. M. Tubman,  S. P. Veccham,  O. Vydrov,  J. Wenzel,  J. Witte,  A. Yamada,
 Kun Yao,  S. Yeganeh,  S. R. Yost,  A. Zech,  Igor Ying Zhang,  Xing Zhang,
 Yu Zhang,  D. Zuev,  A. Aspuru-Guzik,  A. T. Bell,  N. A. Besley,
 K. B. Bravaya,  B. R. Brooks,  D. Casanova,  Jeng-Da Chai,  S. Coriani,
 C. J. Cramer,  A. E. DePrince, III,  R. A. DiStasio Jr.,  A. Dreuw,
 B. D. Dunietz,  T. R. Furlani,  W. A. Goddard III,  S. Grimme,
 S. Hammes-Schiffer,  T. Head-Gordon,  W. J. Hehre,  Chao-Ping Hsu,
 T.-C. Jagau,  Yousung Jung,  A. Klamt,  Jing Kong,  D. S. Lambrecht,
 WanZhen Liang,  N. J. Mayhall,  C. W. McCurdy,  J. B. Neaton,
 C. Ochsenfeld,  J. A. Parkhill,  R. Peverati,  V. A. Rassolov,  Yihan Shao,
 L. V. Slipchenko,  T. Stauch,  R. P. Steele,  J. E. Subotnik,
 A. J. W. Thom,  A. Tkatchenko,  D. G. Truhlar,  T. Van Voorhis,
 T. A. Wesolowski,  K. B. Whaley,  H. L. Woodcock III,  P. M. Zimmerman,
 S. Faraji,  P. M. W. Gill,  M. Head-Gordon,  J. M. Herbert,  A. I. Krylov

 Additional authors for Version 5.4.1:
 S. Kotaru,  Shaozhi Li,  Xiangyuan Li,  F. Matz,  A. Molle,  Haisheng Ren,
 Yingli Su,  Hung-Yi Tsai,  C. Utku,  Fang Wang

 Contributors to earlier versions of Q-Chem not listed above:
 R. D. Adamson,  B. Austin,  R. Baer,  J. Baker,  G. J. O. Beran,
 K. Brandhorst,  S. T. Brown,  E. F. C. Byrd,  A. K. Chakraborty,
 G. K. L. Chan,  Chun-Min Chang,  Yunqing Chen,  C.-L. Cheng,
 Siu Hung Chien,  D. M. Chipman,  D. L. Crittenden,  H. Dachsel,
 R. J. Doerksen,  A. D. Dutoi,  R. G. Edgar,  J. Fosso-Tande,
 L. Fusti-Molnar,  D. Ghosh,  A. Ghysels,  A. Golubeva-Zadorozhnaya,
 J. Gonthier,  M. S. Gordon,  S. R. Gwaltney,  G. Hawkins,  J. E. Herr,
 A. Heyden,  S. Hirata,  E. G. Hohenstein,  G. Kedziora,  F. J. Keil,
 C. Kelley,  Jihan Kim,  R. A. King,  R. Z. Khaliullin,  P. P. Korambath,
 W. Kurlancheek,  A. Laurent,  A. M. Lee,  M. S. Lee,  S. V. Levchenko,
 Ching Yeh Lin,  D. Liotard,  E. Livshits,  R. C. Lochan,  I. Lotan,
 L. A. Martinez-Martinez,  P. E. Maslen,  N. Nair,  D. P. O'Neill,
 D. Neuhauser,  E. Neuscamman,  C. M. Oana,  R. Olivares-Amaya,  R. Olson,
 T. M. Perrine,  B. Peters,  P. A. Pieniazek,  A. Prociuk,  Y. M. Rhee,
 J. Ritchie,  M. A. Rohrdanz,  E. Rosta,  N. J. Russ,  H. F. Schaefer III,
 M. W. Schmidt,  N. E. Schultz,  S. Sharma,  N. Shenvi,  C. D. Sherrill,
 A. C. Simmonett,  A. Sodt,  T. Stein,  D. Stuck,  K. S. Thanthiriwatte,
 V. Vanovschi,  L. Vogt,  Tao Wang,  A. Warshel,  M. A. Watson,
 C. F. Williams,  Q. Wu,  X. Xu,  Jun Yang,  W. Zhang,  Yan Zhao

 Please cite Q-Chem as follows:
 Y. Shao et al., Mol. Phys. 113, 184-215 (2015)
 DOI: 10.1080/00268976.2014.952696

 Q-Chem 5.4.1 for Intel X86 EM64T Linux

 Parts of Q-Chem use Armadillo 9.900.5 (Nocturnal Misbehaviour).
 http://arma.sourceforge.net/

 Q-Chem begins on Wed Jun 22 16:41:40 2022

 Host: p09r14n13.grace.hpc.yale.internal
0

     Scratch files written to /home/tl686/scratch60/qchem_dev/scratch/qchem247567//
 Processing $rem in /home/tl686/qchem_dev/qchem/config/preferences:
 Processing $rem in /home/tl686/.qchemrc:
Applying user defined connections for MM calculations
The previous job contains 0 fragments, simply inherited here

 Checking the input file for inconsistencies... 	...done.

--------------------------------------------------------------
User input:
--------------------------------------------------------------

$molecule
READ
$end

$qm_atoms
1:11
$end

$force_field_params
NumAtomTypes 3
AtomType -1   0.0238     3.11   0.2868
AtomType -2   0.07124    3.30   0.6597
AtomType -3  -0.0760     3.09   0.1434
$end

$rem
     JOBTYPE  freq
     METHOD   bp86
     BASIS    def2-msvp
     MAX_SCF_CYCLES   800
     INPUT_BOHR TRUE
     SYM_IGNORE TRUE
     SCF_GUESS     read
     user_connect            true
     qm_mm_interface         ONIOM
     force_field             oplsaa
$end

--------------------------------------------------------------

    3   -1830.5080252679      7.77E-09 Convergence criterion met
 Total energy in the final basis set = -1828.26361011

                    Orbital Energies (a.u.)
 --------------------------------------------------------------

 Alpha MOs
 -- Occupied --
******** -29.6420 -25.6019 -25.5894 -25.5849 -18.8887 -18.8854 -18.8848
-18.8798 -18.8767 -10.0632 -10.0572 -10.0572 -10.0550 -10.0472  -3.3264
 -2.1633  -2.1378  -2.1280  -1.0507  -1.0487  -1.0476  -1.0457  -1.0060
 -0.5806  -0.5301  -0.5246  -0.5211  -0.5173  -0.4574  -0.4428  -0.4347
 -0.4328  -0.4293  -0.4257  -0.4228  -0.4182  -0.4164  -0.4063  -0.3989
 -0.3942  -0.3913  -0.3876  -0.3764  -0.2834  -0.2779  -0.2383  -0.2284

          Ground-State Mulliken Net Atomic Charges

     Atom                 Charge (a.u.)
  ----------------------------------------
      1 Fe                   -0.460964
      2 C                     0.213558
      3 C                     0.259062
      4 C                     0.201489
      5 C                     0.237843
      6 C                     0.211067
      7 O                    -0.116451
      8 O                    -0.172574
      9 O                    -0.127643
     10 O                    -0.117257
     11 O                    -0.128132
  ----------------------------------------
  Sum of atomic charges =     0.000000

                    Cartesian Multipole Moments
 -----------------------------------------------------------------
    Charge (ESU x 10^10)
                -0.0000
    Dipole Moment (Debye)
         X      -0.5313205393      Y       0.2330862856      Z       0.2303981779
       Tot       0.6242708165
    Quadrupole Moments (Debye-Ang)
        XX    -275.4334     XY      40.9667     YY     -66.6946
        XZ      55.4949     YZ      -3.4828     ZZ     -79.6155
