 Q-Chem 5.4 (devel), Q-Chem, Inc., Pleasanton, CA (2021)
 Q-Chem 5.4.1 for Intel X86 EM64T Linux

User input:
--------------------------------------------------------------
$molecule
0   1
 Fe -58.01895460 -28.70937236 7.43812328    -1  0   0   0   0
C -58.87520121 -31.90506361 6.69845829    -2  0   0   0   0
C -58.77517064 -26.97994610 10.34966079    -2  0   0   0   0
C -56.36144289 -26.66185819 5.22943547    -2  0   0   0   0
C -61.02455343 -27.78765526 6.35741441    -2  0   0   0   0
C -55.07645839 -30.43500413 8.32334940    -2  0   0   0   0
O -59.29672633 -34.02148343 6.31142697    -3  0   0   0   0
O -59.35996879 -25.94420953 12.10639100    -3  0   0   0   0
O -55.41926027 -25.59358886 3.60830220    -3  0   0   0   0
O -63.02571960 -27.48887291 5.50395395    -3  0   0   0   0
O -53.12117066 -31.66169028 8.46821317    -3  0   0   0   0
H -60.28086064 -42.09308263 -15.88737096      6     13    0    0    0
C -58.91991091 -40.64614680 -15.28310923     1     12    14    15    16
H -56.96180246 -41.28023080 -15.96805656     6     13    0    0    0
H -59.32143326 -38.70270879 -15.94294456     6     13    0    0    0
C -58.91690202 -40.74574069 -12.38022213     2     13    17    18    19
H -58.67988820 -42.62299076 -11.93867030     6     16    0    0    0
H -57.29957627 -39.66938180 -11.88392972     6     16    0    0    0
C -61.39672731 -39.78498046 -11.05471390     2     16    20   21   22
H -61.85928256 -37.93555251 -11.77673375     6     19    0    0    0
H -62.83242939 -41.12531121 -11.75574645     6     19    0    0    0
C -61.28187302 -39.65694715 -8.19452074     2     19   23   24   25
H -60.79520369 -41.47409925 -7.49609854     6    22    0    0    0
H -59.77322405 -38.34019685 -7.61965860     6    22    0    0    0
C -63.84078695 -38.72825444 -7.14377583     2    22   26   27   28
H -64.14444950 -36.74661823 -7.67399429     6    25    0    0    0
H -65.29464946 -39.59984764 -8.31985782     6    25    0    0    0
C -64.07706067 -38.95088105 -4.29073777     2    25   29   30   31
H -63.70527759 -40.83393469 -3.53281294     6    28    0    0    0
H -62.93239365 -37.52802658 -3.44678224     6    28    0    0    0
C -66.92450611 -38.59133520 -3.55683463     2    28   32   33   34
H -66.82829550 -38.43569867 -1.44668465     6    31    0    0    0
H -67.61233955 -36.84308326 -4.45901057     6    31    0    0    0
C -68.60624869 -40.81592907 -4.23910510     2    31   35   36   37
H -69.23026461 -41.00163108 -6.24659783     6    34    0    0    0
H -67.53055901 -42.52353261 -3.97473344     6    34    0    0    0
C -70.77298090 -40.85970721 -2.45626623     2    34   38   39   40
H -70.21223627 -40.58763353 -0.48102381     6    37    0    0    0
H -72.12782490 -39.44160254 -3.06758188     6    37    0    0    0
C -72.03819464 -43.44998439 -2.41725721     2    37   41   42   43
H -73.10243249 -43.70381823 -4.10210403     6    40    0    0    0
H -70.54665859 -44.90509238 -2.13723977     6    40    0    0    0
C -73.86139041 -43.58903095 -0.21727137     2    40   44   45   46
H -72.74559613 -43.72094750 1.60281573     6    43    0    0    0
H -74.39285941 -41.65098796 -0.07314105     6    43    0    0    0
C -75.97771911 -45.53789576 -0.55846426     1    43   47   48   49
H -77.30375855 -45.15858491 -2.05789465     6    46    0    0    0
H -77.03959183 -45.56815042 1.26935481     6    46    0    0    0
H -75.17861002 -47.38459397 -0.85040978     6    46    0    0    0
H -66.41493535 -34.68822050 9.20438286     6     51    0    0    0
C -65.55232151 -33.18475298 8.06848684     1     50    52    53    54
H -66.93600224 -31.64033064 8.17492427     6     51    0    0    0
H -63.83237903 -32.58085499 9.06807744     6     51    0    0    0
C -65.16429270 -34.11366237 5.26622365     2     51    55    56    57
H -63.64171494 -32.89556594 4.58119725     6     54    0    0    0
H -64.59142074 -36.06428317 5.56698612     6     54    0    0    0
C -67.50370505 -33.86462673 3.67182208     2     54    58   59   60
H -68.19740780 -31.94518009 3.79830618     6     57    0    0    0
H -67.30537879 -34.08033631 1.72331591     6     57    0    0    0
C -69.81839720 -35.31972701 4.64602661     2     57   61   62   63
H -68.96011826 -37.11421680 5.02777794     6    60    0    0    0
H -70.54348032 -34.43609452 6.39978215     6    60    0    0    0
C -72.07697678 -35.52466082 2.80509932     2    60   64   65   66
H -73.09614507 -33.77378758 2.94980689     6    63    0    0    0
H -71.43728834 -35.63210181 0.84906696     6    63    0    0    0
C -73.88784883 -37.71814874 3.37042980     2    63   67   68   69
H -75.22725470 -37.84793808 1.79883768     6    66    0    0    0
H -73.07043120 -39.58645245 3.29989362     6    66    0    0    0
C -75.36653505 -37.37804980 5.79616597     2    66   70   71   72
H -74.16669539 -37.13213291 7.45101199     6    69    0    0    0
H -76.28764660 -35.48162439 5.88909430     6    69    0    0    0
C -77.24932136 -39.38260830 6.47810858     2    69   73   74   75
H -78.90982511 -38.96411314 5.26432415     6    72    0    0    0
H -76.42775682 -41.18013530 6.01308871     6    72    0    0    0
C -78.11434217 -39.48902257 9.29295528     2    72   76   77   78
H -76.68991369 -39.09028524 10.65247161     6    75    0    0    0
H -79.62778251 -37.91710289 9.45615077     6    75    0    0    0
C -79.59416954 -41.99305516 9.91111069     2    75   79   80   81
H -81.40834385 -41.72502044 8.92713575     6    78    0    0    0
H -78.47327798 -43.67286777 9.49793746     6    78    0    0    0
C -79.95125043 -42.09531680 12.84951693     2    78   82   83   84
H -78.13420623 -42.16613173 13.88238481     6    81    0    0    0
H -80.82864049 -40.35909749 13.56737737     6    81    0    0    0
C -81.51597595 -44.37565284 13.91453137     1    81   85   86   87
H -81.89897242 -44.17551933 15.92047654     6    84    0    0    0
H -80.41677415 -46.04621892 13.42053046     6    84    0    0    0
H -83.37908205 -44.51493144 13.16652972     6    84    0    0    0
H -58.78050464 -25.12100517 -26.80245458     6     89    0    0    0
C -60.54718712 -25.96373206 -27.36052254     1     88    90    91    92
H -61.92665828 -24.56006819 -28.01043569     6     89    0    0    0
H -60.13572031 -26.94963219 -29.07289042     6     89    0    0    0
C -61.76369727 -27.93346078 -25.57656373     2     89    93    94    95
H -60.32529056 -29.39269592 -25.22697897     6     92    0    0    0
H -62.14160360 -26.77090791 -23.84502946     6     92    0    0    0
C -64.15335403 -29.10149699 -26.81059687     2     92    96   97   98
H -65.67910016 -27.83508941 -27.37026607     6     95    0    0    0
H -63.50613598 -30.13418435 -28.57828486     6     95    0    0    0
C -65.33908988 -31.01502185 -25.01667373     2     95   99   100   101
H -64.00155522 -32.55891195 -24.68825725     6    98    0    0    0
H -65.70652384 -30.17343012 -23.27101944     6    98    0    0    0
C -67.90436093 -32.01946188 -25.86241468     2    98   102   103   104
H -69.04927831 -30.30881361 -25.88535129     6    101    0    0    0
H -67.90696767 -32.49485973 -27.82918601     6    101    0    0    0
C -68.87629955 -34.10039464 -24.19777040     2    101   105   106   107
H -67.48516113 -35.58185999 -23.97045638     6    104    0    0    0
H -69.36526428 -33.27986101 -22.50402374     6    104    0    0    0
C -71.21303107 -35.32281251 -25.22282670     2    104   108   109   110
H -72.96520201 -33.92903291 -25.00869549     6    107    0    0    0
H -71.42120172 -35.93766952 -27.16006178     6    107    0    0    0
C -71.72704837 -37.74359185 -23.75125052     2    107   111   112   113
H -69.99206814 -38.95039833 -23.60637959     6    110    0    0    0
H -72.64452235 -36.97748746 -21.95693597     6    110    0    0    0
C -73.70286037 -39.21417410 -25.38253284     2    110   114   115   116
H -75.43010930 -38.10679588 -25.64837335     6    113    0    0    0
H -72.79575801 -39.69252241 -27.15407385     6    113    0    0    0
C -74.74633687 -41.66619250 -24.16925978     2    113   117   118   119
H -75.94562548 -42.76775790 -25.25619058     6    116    0    0    0
H -73.01548238 -42.76435582 -23.96497502     6    116    0    0    0
C -76.17508687 -41.00197624 -21.61829343     2    116   120   121   122
H -75.02722222 -39.97864764 -20.26060193     6    119    0    0    0
H -77.78128655 -39.89308736 -22.06983005     6    119    0    0    0
C -77.23502395 -43.35571193 -20.12531996     1    119   123   124   125
H -77.95562775 -42.75446801 -18.26993442     6    122    0    0    0
H -75.70125227 -44.80423502 -20.05022241     6    122    0    0    0
H -78.73644628 -44.33634024 -21.22540432     6    122    0    0    0
H -68.74679474 -11.07281585 -17.24212332     6     127    0    0    0
C -67.31045605 -12.05579424 -18.35599973     1     126    128    129    130
H -68.38922755 -13.10522342 -19.73560638     6     127    0    0    0
H -66.08416108 -10.88218794 -19.59636291     6     127    0    0    0
C -65.81707969 -13.78192192 -16.56891032     2     127    131    132    133
H -66.83953646 -15.30424647 -15.86805222     6     130    0    0    0
H -64.24962124 -14.63742551 -17.75693007     6     130    0    0    0
C -64.42469235 -12.57940221 -14.33483954     2     130    134   135   136
H -63.48160518 -10.87709375 -14.99150704     6     133    0    0    0
H -65.91502067 -12.02197451 -12.94559594     6     133    0    0    0
C -62.34013519 -14.34494921 -13.13443172     2     133   137   138   139
H -63.00785819 -16.25290834 -12.64748960     6    136    0    0    0
H -60.82657453 -14.74435727 -14.48859236     6    136    0    0    0
C -61.27001885 -13.26314423 -10.61065216     2    136   140   141   142
H -60.57344062 -11.26331104 -10.81313025     6    139    0    0    0
H -62.78245899 -13.08664757 -9.12158698     6    139    0    0    0
C -59.27384392 -14.93409677 -9.50418658     2    139   143   144   145
H -60.03203120 -16.81731037 -9.22131884     6    142    0    0    0
H -57.94347820 -15.32062560 -10.91993988     6    142    0    0    0
C -58.12726027 -13.97988109 -7.12155181     2    142   146   147   148
H -57.24106136 -12.03223976 -7.49240788     6    145    0    0    0
H -59.62472258 -13.71749436 -5.83536097     6    145    0    0    0
C -56.21235283 -15.90905913 -6.11978955     2    145   149   150   151
H -57.25982409 -17.62817612 -5.57214731     6    148    0    0    0
H -55.04853903 -16.27433795 -7.78943286     6    148    0    0    0
C -55.02708566 -15.18771173 -3.56116209     2    148   152   153   154
H -53.60098233 -13.71597292 -3.86721415     6    151    0    0    0
H -56.42736623 -14.22832174 -2.38648687     6    151    0    0    0
C -53.53930814 -17.25913803 -1.99577533     2    151   155   156   157
H -52.94443884 -16.31393587 -0.13585996     6    154    0    0    0
H -54.85403789 -18.78878176 -1.27856506     6    154    0    0    0
C -51.44100990 -18.76374492 -3.38176018     2    154   158   159   160
H -52.29462070 -19.90411540 -4.83972935     6    157    0    0    0
H -50.05557610 -17.44325953 -4.22876284     6    157    0    0    0
C -49.77005509 -20.44819252 -1.58176538     1    157   161   162   163
H -48.26085306 -21.43664337 -2.71266313     6    160    0    0    0
H -50.93198946 -22.02045599 -0.85507397     6    160    0    0    0
H -48.76284052 -19.24969053 -0.17776310     6    160    0    0    0
H -79.62428272 -17.18104395 -14.39059716     6     165    0    0    0
C -79.33500034 -15.39117560 -13.52401302     1     164    166    167    168
H -80.34821215 -14.12184582 -14.62673104     6     165    0    0    0
H -80.03787841 -15.65837005 -11.61738405     6     165    0    0    0
C -76.58996559 -14.37663646 -13.49413076     2     165    169    170    171
H -75.04969238 -15.46748043 -12.61184410     6     168    0    0    0
H -76.10240699 -14.25622177 -15.48686692     6     168    0    0    0
C -76.34667792 -11.52334986 -12.63898522     2     168    172   173   174
H -77.69259539 -10.55203397 -13.78893666     6     171    0    0    0
H -76.89846465 -11.11023298 -10.68430864     6     171    0    0    0
C -73.76780824 -10.59289129 -13.51028792     2     171   175   176   177
H -72.31810774 -11.69880452 -12.83623920     6    174    0    0    0
H -73.82138538 -10.76039540 -15.59452565     6    174    0    0    0
C -73.04110646 -8.00500310 -12.67477132     2    174   178   179   180
H -73.82255352 -6.78691620 -14.11328736     6    177    0    0    0
H -73.70804205 -7.71978532 -10.68945683     6    177    0    0    0
C -70.17947855 -7.50869811 -12.55494122     2    177   181   182   183
H -69.26381799 -9.22444484 -11.81126702     6    180    0    0    0
H -69.21586424 -7.10258917 -14.41265958     6    180    0    0    0
C -69.28262031 -5.57664467 -10.79270935     2    180   184   185   186
H -70.22544808 -3.72701850 -10.95653657     6    183    0    0    0
H -69.63851622 -5.95146923 -8.81623718     6    183    0    0    0
C -66.33624385 -5.03308936 -11.00907849     2    183   187   188   189
H -65.12698224 -6.57537501 -10.74155300     6    186    0    0    0
H -66.00858883 -4.38234687 -12.89264032     6    186    0    0    0
C -65.58236693 -3.07138791 -9.12458854     2    186   190   191   192
H -66.67785505 -1.31239953 -9.08450528     6    189    0    0    0
H -66.01554810 -3.66787916 -7.11898768     6    189    0    0    0
C -62.80978298 -2.20100639 -9.41824823     2    189   193   194   195
H -61.63688243 -3.73989679 -8.80541086     6    192    0    0    0
H -62.51234552 -1.66258439 -11.36615363     6    192    0    0    0
C -62.12174714 0.02728064 -7.72370601     2    192   196   197   198
H -62.96831739 1.79862763 -8.38662960     6    195    0    0    0
H -62.98410399 -0.25397610 -5.86743609     6    195    0    0    0
C -59.23687299 0.69275503 -7.50168266     1    195   199   200   201
H -58.99137318 2.49010503 -6.47608660     6    198    0    0    0
H -58.55479628 0.85361561 -9.45312286     6    198    0    0    0
H -58.12313669 -0.78170049 -6.60564265     6    198    0    0    0
H -91.02831089 -13.76288191 -6.65907985     6     203    0    0    0
C -91.51374581 -14.52418528 -4.72958942     1     202    204    205    206
H -91.96048806 -12.94379458 -3.51637718     6     203    0    0    0
H -93.24851049 -15.69630025 -4.93347869     6     203    0    0    0
C -89.30298246 -16.14185079 -3.56038544     2     203    207    208    209
H -89.95915963 -17.58693136 -2.16584068     6     206    0    0    0
H -88.30198910 -17.25871390 -4.98181571     6     206    0    0    0
C -87.31395719 -14.45359112 -2.18579191     2     206    210   211   212
H -85.54403756 -15.51053315 -1.67079141     6     209    0    0    0
H -86.78282827 -12.76343835 -3.22282720     6     209    0    0    0
C -88.23698293 -13.64295825 0.53737026     2     209   213   214   215
H -89.84748975 -12.54259615 -0.00390336     6    212    0    0    0
H -88.82224791 -15.24908808 1.65496510     6    212    0    0    0
C -86.24803314 -12.04049024 2.04188223     2    212   216   217   218
H -84.49261432 -12.81239960 1.75011564     6    215    0    0    0
H -86.09345753 -10.12945481 1.29412843     6    215    0    0    0
C -87.11341584 -11.76969561 4.85317121     2    215   219   220   221
H -88.91555353 -10.84461155 5.01544117     6    218    0    0    0
H -87.26657291 -13.68286863 5.55047442     6    218    0    0    0
C -85.10598380 -10.45491463 6.59007164     2    218   222   223   224
H -83.40678448 -11.53051903 6.26015551     6    221    0    0    0
H -84.69250578 -8.59334426 5.84658180     6    221    0    0    0
C -85.54104336 -10.37156147 9.41329769     2    221   225   226   227
H -87.34745868 -9.38981716 9.60544561     6    224    0    0    0
H -85.59754140 -12.40831942 9.96334740     6    224    0    0    0
C -83.53686434 -8.98259916 11.13582085     2    224   228   229   230
H -81.69200761 -9.97984655 11.15256249     6    227    0    0    0
H -83.00923590 -7.08154267 10.39666548     6    227    0    0    0
C -84.49567679 -8.79530482 13.84832472     2    227   231   232   233
H -86.32572069 -7.86539431 13.69438657     6    230    0    0    0
H -84.68944866 -10.66499758 14.68323209     6    230    0    0    0
C -82.69081234 -7.41171420 15.63191174     2    230   234   235   236
H -80.84720191 -8.30356755 15.45095805     6    233    0    0    0
H -82.53985287 -5.50227982 14.82472554     6    233    0    0    0
C -83.39613637 -7.06100137 18.41383227     1    233   237   238   239
H -81.90923219 -6.10929828 19.53618399     6    236    0    0    0
H -83.85459714 -8.81406685 19.28142639     6    236    0    0    0
H -84.96743422 -5.75938763 18.55652720     6    236    0    0    0
H -88.83258035 -34.32178217 -2.72791511     6     241    0    0    0
C -86.77126074 -34.63098507 -2.81984940     1     240    242    243    244
H -86.23815001 -33.97566270 -4.62147946     6     241    0    0    0
H -85.99977209 -33.38398873 -1.39727768     6     241    0    0    0
C -86.10861321 -37.25071587 -2.36599563     2     241    245    246    247
H -86.73762705 -38.70450048 -3.87832238     6     244    0    0    0
H -84.08596988 -37.36254916 -2.48235043     6     244    0    0    0
C -86.88031722 -37.94955857 0.32177590     2     244    248   249   250
H -85.88572434 -36.93081487 1.92489701     6     247    0    0    0
H -88.89942775 -37.33993251 0.48248495     6     247    0    0    0
C -86.42770371 -40.80993141 0.96896197     2     247   251   252   253
H -87.39302252 -41.19532454 2.84416527     6    250    0    0    0
H -87.57193576 -41.78289995 -0.31413631     6    250    0    0    0
C -83.71584968 -41.81322725 0.75446196     2    250   254   255   256
H -82.81504246 -41.51217928 -1.10930527     6    253    0    0    0
H -82.61648281 -40.58538637 2.08229273     6    253    0    0    0
C -83.57167489 -44.65725892 1.52013287     2    253   257   258   259
H -81.65758912 -45.08589232 2.29148189     6    256    0    0    0
H -84.79795355 -45.02534096 3.09351488     6    256    0    0    0
C -84.22529313 -46.40899247 -0.68564612     2    256   260   261   262
H -85.98771553 -45.81401960 -1.67270266     6    259    0    0    0
H -82.80767346 -46.34123052 -2.29260025     6    259    0    0    0
C -84.44280613 -49.18717008 0.09819262     2    259   263   264   265
H -82.62737509 -49.66345515 1.07810127     6    262    0    0    0
H -86.00777379 -49.43134509 1.53806288     6    262    0    0    0
C -84.93801212 -51.11611493 -2.09962610     2    262   266   267   268
H -86.43238517 -50.41566798 -3.45893783     6    265    0    0    0
H -83.20210362 -51.47781416 -3.06471003     6    265    0    0    0
C -85.38629159 -53.88545628 -1.12349807     2    265   269   270   271
H -83.78297114 -54.26625092 0.05684938     6    268    0    0    0
H -87.04012619 -53.74600989 0.07830666     6    268    0    0    0
C -85.62776840 -55.88029392 -3.16852281     2    268   272   273   274
H -86.56714000 -57.46366821 -2.14713604     6    271    0    0    0
H -86.51506062 -55.27537718 -4.82241944     6    271    0    0    0
C -83.10044088 -57.03462407 -3.83370648     1    271   275   276   277
H -81.72203226 -55.55891740 -4.49341190     6    274    0    0    0
H -83.50545727 -58.19536796 -5.40601072     6    274    0    0    0
H -82.44804502 -58.19500028 -2.34269157     6    274    0    0    0
H -81.93894619 -21.39295382 -12.32874131     6     279    0    0    0
C -82.96009651 -22.78210177 -11.08171831     1     278    280    281    282
H -84.92090469 -23.00341017 -11.77218609     6     279    0    0    0
H -81.84922412 -24.44484920 -11.39267584     6     279    0    0    0
C -82.97904349 -22.04058802 -8.20616224     2     279    283    284    285
H -81.07396375 -21.78598115 -7.61785616     6     282    0    0    0
H -83.83736120 -20.30057087 -7.96918346     6     282    0    0    0
C -84.57352391 -24.05434134 -6.67918401     2     282    286   287   288
H -86.10591394 -24.83959625 -7.70297363     6     285    0    0    0
H -83.34096448 -25.67775945 -6.48710359     6     285    0    0    0
C -85.55044030 -23.14319645 -4.13151946     2     285   289   290   291
H -83.72985174 -22.94969640 -3.05118802     6    288    0    0    0
H -86.54240548 -21.27656686 -4.34738606     6    288    0    0    0
C -87.30138006 -25.01216575 -2.60714623     2    288   292   293   294
H -89.11218899 -25.20986115 -3.78246165     6    291    0    0    0
H -86.28147315 -26.73593202 -2.48309620     6    291    0    0    0
C -87.57299247 -24.46183940 0.12364852     2    291   295   296   297
H -85.72944930 -24.52820378 0.96108300     6    294    0    0    0
H -88.48244923 -22.67505080 0.49046737     6    294    0    0    0
C -88.80098318 -26.72424448 1.51571166     2    294   298   299   300

   18   -1830.5090489634      7.56E-09 Convergence criterion met
 Total energy in the final basis set = -1828.29619724
 Total job time:  17.13s(wall), 31.04s(cpu)
        *  Thank you very much for using Q-Chem.  Have a nice day.  *

User input: 2 of 2

                  Welcome to Q-Chem
     A Quantum Leap Into The Future Of Chemistry

 Q-Chem 5.4 (devel), Q-Chem, Inc., Pleasanton, CA (2021)

 E. Epifanovsky,  A. T. B. Gilbert,  Xintian Feng,  Joonho Lee,  Yuezhi Mao,
 N. Mardirossian,  P. Pokhilko,  A. White,  M. Wormit,  M. P. Coons,
 A. L. Dempwolff,  Zhengting Gan,  D. Hait,  P. R. Horn,  L. D. Jacobson,
 I. Kaliman,  J. Kussmann,  A. W. Lange,  Ka Un Lao,  D. S. Levine,  Jie Liu,
 S. C. McKenzie,  A. F. Morrison,  K. Nanda,  F. Plasser,  D. R. Rehn,
 M. L. Vidal,  Zhi-Qiang You,  Ying Zhu,  B. Alam,  B. Albrecht,
 A. Aldossary,  E. Alguire,  J. H. Andersen,  D. Barton,  K. Begam,  A. Behn,
 Y. A. Bernard,  E. J. Berquist,  H. Burton,  A. Carreras,  K. Carter-Fenk,
 R. Chakraborty,  A. D. Chien,  K. D. Closser,  V. Cofer-Shabica,
 S. Dasgupta,  Jia Deng,  M. de Wergifosse,  M. Diedenhofen,  Hainam Do,
 S. Ehlert,  Po-Tung Fang,  S. Fatehi,  Qingguo Feng,  T. Friedhoff,
 J. Gayvert,  Qinghui Ge,  G. Gidofalvi,  M. Goldey,  J. Gomes,
 C. Gonzalez-Espinoza,  S. Gulania,  A. Gunina,  M. W. D. Hanson-Heine,
 P. H. P. Harbach,  A. W. Hauser,  M. F. Herbst,  M. Hernandez Vera,
 M. Hodecker,  Z. C. Holden,  S. Houck,  Xunkun Huang,  Kerwin Hui,
 B. C. Huynh,  M. Ivanov,  Hyunjun Ji,  Hanjie Jiang,  B. Kaduk,  S. Kaehler,
 K. Khistyaev,  Jaehoon Kim,  P. Klunzinger,  Z. Koczor-Benda,
 Joong Hoon Koh,  D. Kosenkov,  L. Koulias,  T. Kowalczyk,  C. M. Krauter,
 K. Kue,  A. Kunitsa,  T. Kus,  A. Landau,  K. V. Lawler,  D. Lefrancois,
 S. Lehtola,  Rain Li,  Yi-Pei Li,  Jiashu Liang,  M. Liebenthal,
 Hung-Hsuan Lin,  You-Sheng Lin,  Fenglai Liu,  Kuan-Yu Liu,
 M. Loipersberger,  A. Luenser,  A. Manjanath,  P. Manohar,  E. Mansoor,
 S. F. Manzer,  Shan-Ping Mao,  A. V. Marenich,  T. Markovich,  S. Mason,
 S. A. Maurer,  P. F. McLaughlin,  M. F. S. J. Menger,  J.-M. Mewes,
 S. A. Mewes,  P. Morgante,  J. W. Mullinax,  K. J. Oosterbaan,  G. Paran,
 Alexander C. Paul,  Suranjan K. Paul,  F. Pavosevic,  Zheng Pei,  S. Prager,
 E. I. Proynov,  E. Ramos,  B. Rana,  A. E. Rask,  A. Rettig,  R. M. Richard,
 F. Rob,  E. Rossomme,  T. Scheele,  M. Scheurer,  M. Schneider,
 N. Sergueev,  S. M. Sharada,  W. Skomorowski,  D. W. Small,  C. J. Stein,
 Yu-Chuan Su,  E. J. Sundstrom,  Zhen Tao,  J. Thirman,  T. Tsuchimochi,
 N. M. Tubman,  S. P. Veccham,  O. Vydrov,  J. Wenzel,  J. Witte,  A. Yamada,
 Kun Yao,  S. Yeganeh,  S. R. Yost,  A. Zech,  Igor Ying Zhang,  Xing Zhang,
 Yu Zhang,  D. Zuev,  A. Aspuru-Guzik,  A. T. Bell,  N. A. Besley,
 K. B. Bravaya,  B. R. Brooks,  D. Casanova,  Jeng-Da Chai,  S. Coriani,
 C. J. Cramer,  A. E. DePrince, III,  R. A. DiStasio Jr.,  A. Dreuw,
 B. D. Dunietz,  T. R. Furlani,  W. A. Goddard III,  S. Grimme,
 S. Hammes-Schiffer,  T. Head-Gordon,  W. J. Hehre,  Chao-Ping Hsu,
 T.-C. Jagau,  Yousung Jung,  A. Klamt,  Jing Kong,  D. S. Lambrecht,
 WanZhen Liang,  N. J. Mayhall,  C. W. McCurdy,  J. B. Neaton,
 C. Ochsenfeld,  J. A. Parkhill,  R. Peverati,  V. A. Rassolov,  Yihan Shao,
 L. V. Slipchenko,  T. Stauch,  R. P. Steele,  J. E. Subotnik,
 A. J. W. Thom,  A. Tkatchenko,  D. G. Truhlar,  T. Van Voorhis,
 T. A. Wesolowski,  K. B. Whaley,  H. L. Woodcock III,  P. M. Zimmerman,
 S. Faraji,  P. M. W. Gill,  M. Head-Gordon,  J. M. Herbert,  A. I. Krylov

 Additional authors for Version 5.4.1:
 S. Kotaru,  Shaozhi Li,  Xiangyuan Li,  F. Matz,  A. Molle,  Haisheng Ren,
 Yingli Su,  Hung-Yi Tsai,  C. Utku,  Fang Wang

 Contributors to earlier versions of Q-Chem not listed above:
 R. D. Adamson,  B. Austin,  R. Baer,  J. Baker,  G. J. O. Beran,
 K. Brandhorst,  S. T. Brown,  E. F. C. Byrd,  A. K. Chakraborty,
 G. K. L. Chan,  Chun-Min Chang,  Yunqing Chen,  C.-L. Cheng,
 Siu Hung Chien,  D. M. Chipman,  D. L. Crittenden,  H. Dachsel,
 R. J. Doerksen,  A. D. Dutoi,  R. G. Edgar,  J. Fosso-Tande,
 L. Fusti-Molnar,  D. Ghosh,  A. Ghysels,  A. Golubeva-Zadorozhnaya,
 J. Gonthier,  M. S. Gordon,  S. R. Gwaltney,  G. Hawkins,  J. E. Herr,
 A. Heyden,  S. Hirata,  E. G. Hohenstein,  G. Kedziora,  F. J. Keil,
 C. Kelley,  Jihan Kim,  R. A. King,  R. Z. Khaliullin,  P. P. Korambath,
 W. Kurlancheek,  A. Laurent,  A. M. Lee,  M. S. Lee,  S. V. Levchenko,
 Ching Yeh Lin,  D. Liotard,  E. Livshits,  R. C. Lochan,  I. Lotan,
 L. A. Martinez-Martinez,  P. E. Maslen,  N. Nair,  D. P. O'Neill,
 D. Neuhauser,  E. Neuscamman,  C. M. Oana,  R. Olivares-Amaya,  R. Olson,
 T. M. Perrine,  B. Peters,  P. A. Pieniazek,  A. Prociuk,  Y. M. Rhee,
 J. Ritchie,  M. A. Rohrdanz,  E. Rosta,  N. J. Russ,  H. F. Schaefer III,
 M. W. Schmidt,  N. E. Schultz,  S. Sharma,  N. Shenvi,  C. D. Sherrill,
 A. C. Simmonett,  A. Sodt,  T. Stein,  D. Stuck,  K. S. Thanthiriwatte,
 V. Vanovschi,  L. Vogt,  Tao Wang,  A. Warshel,  M. A. Watson,
 C. F. Williams,  Q. Wu,  X. Xu,  Jun Yang,  W. Zhang,  Yan Zhao

 Please cite Q-Chem as follows:
 Y. Shao et al., Mol. Phys. 113, 184-215 (2015)
 DOI: 10.1080/00268976.2014.952696

 Q-Chem 5.4.1 for Intel X86 EM64T Linux

 Parts of Q-Chem use Armadillo 9.900.5 (Nocturnal Misbehaviour).
 http://arma.sourceforge.net/

 Q-Chem begins on Wed Jun  1 23:30:40 2022

 Host: p09r14n13.grace.hpc.yale.internal
0

     Scratch files written to /home/tl686/scratch60/qchem_dev/scratch/qchem244136//
 Processing $rem in /home/tl686/qchem_dev/qchem/config/preferences:
 Processing $rem in /home/tl686/.qchemrc:
Applying user defined connections for MM calculations
The previous job contains 0 fragments, simply inherited here

 Checking the input file for inconsistencies... 	...done.

--------------------------------------------------------------
User input:
--------------------------------------------------------------

$molecule
READ
$end

$qm_atoms
1:11
$end

$force_field_params
NumAtomTypes 3
AtomType -1   0.0238     3.11   0.2868
AtomType -2   0.07124    3.30   0.6597
AtomType -3  -0.0760     3.09   0.1434
$end

$rem
     JOBTYPE  freq
     METHOD   bp86
     BASIS    def2-msvp
     MAX_SCF_CYCLES   800
     INPUT_BOHR TRUE
     SYM_IGNORE TRUE
     SCF_GUESS     read
     user_connect            true
     qm_mm_interface         ONIOM
     force_field             oplsaa
$end

--------------------------------------------------------------

    2   -1830.5090489636      3.44E-09 Convergence criterion met
 Total energy in the final basis set = -1828.29619724

                    Orbital Energies (a.u.)
 --------------------------------------------------------------

 Alpha MOs
 -- Occupied --
******** -29.6336 -25.5935 -25.5820 -25.5757 -18.8845 -18.8824 -18.8810
-18.8778 -18.8744 -10.0616 -10.0511 -10.0437 -10.0411 -10.0384  -3.3184
 -2.1544  -2.1325  -2.1181  -1.0795  -1.0621  -1.0565  -1.0506  -1.0223
 -0.5757  -0.5306  -0.5178  -0.5169  -0.5109  -0.4561  -0.4467  -0.4438
 -0.4375  -0.4351  -0.4290  -0.4271  -0.4214  -0.4182  -0.4173  -0.4064
 -0.4006  -0.3943  -0.3888  -0.3755  -0.2766  -0.2679  -0.2306  -0.2219

          Ground-State Mulliken Net Atomic Charges

     Atom                 Charge (a.u.)
  ----------------------------------------
      1 Fe                   -0.454655
      2 C                     0.188212
      3 C                     0.205960
      4 C                     0.223414
      5 C                     0.170627
      6 C                     0.215949
      7 O                    -0.112529
      8 O                    -0.071753
      9 O                    -0.093193
     10 O                    -0.116909
     11 O                    -0.155124
  ----------------------------------------
  Sum of atomic charges =     0.000000

                    Cartesian Multipole Moments
 -----------------------------------------------------------------
    Charge (ESU x 10^10)
                -0.0000
    Dipole Moment (Debye)
         X      -0.2133603878      Y       0.6364449794      Z       0.3819404169
       Tot       0.7723103968
    Quadrupole Moments (Debye-Ang)
        XX     -57.0389     XY     -15.7000     YY     -89.0531
        XZ     -12.4525     YZ      -3.2331     ZZ     -65.7409

 Frequency:      -215.93                -211.36                 -89.35
 Force Cnst:      0.4364                 0.4184                 0.0765
 Red. Mass:      15.8854                15.8979                16.2712
 IR Intens:        0.000                  0.000                  0.000
 Frequency:       -84.97                  75.61                  89.12
 Force Cnst:      0.0680                 0.0525                 0.0731
 Red. Mass:      15.9845                15.5747                15.6100
 IR Intens:        0.000                  0.000                  0.000
 Frequency:       138.94                 222.83                 276.27
 Force Cnst:      0.1782                 0.4033                 0.5808
 Red. Mass:      15.6662                13.7856                12.9168
 IR Intens:        0.000                  0.000                  0.000
 Frequency:       341.66                 370.72                 393.81
 Force Cnst:      0.8722                 1.0440                 1.3249
 Red. Mass:      12.6815                12.8934                14.5004
 IR Intens:        0.000                  0.000                  0.000
 Frequency:       407.01                 428.30                 467.49
 Force Cnst:      1.2433                 1.5459                 1.7420
 Red. Mass:      12.7385                14.3029                13.5285
 IR Intens:        0.000                  0.000                  0.000
 Frequency:       473.72                 497.66                 576.32
 Force Cnst:      2.1208                 2.1763                 2.6764
 Red. Mass:      16.0404                14.9140                13.6764
 IR Intens:        0.000                  0.000                  0.000
 Frequency:       584.57                 614.77                 676.14
 Force Cnst:      2.7425                 4.3552                 4.1411
 Red. Mass:      13.6215                19.5585                15.3743
 IR Intens:        0.000                  0.000                  0.000
 Frequency:       685.85                1622.87                2046.59
 Force Cnst:      4.2642                20.6802                32.8520
 Red. Mass:      15.3863                13.3272                13.3121
 IR Intens:        0.000                  0.000                  0.000
 Frequency:      2081.37                2193.52                2336.98
 Force Cnst:     33.9498                37.8511                43.0058
 Red. Mass:      13.3011                13.3519                13.3650
 IR Intens:        0.000                  0.000                  0.000

 STANDARD THERMODYNAMIC QUANTITIES AT   298.15 K  AND     1.00 ATM

   This Molecule has  4 Imaginary Frequencies
   Zero point vibrational energy:       25.163 kcal/mol

   Atom    1 Element Fe Has Mass   55.93490
   Atom    2 Element C  Has Mass   12.00000
   Atom    3 Element C  Has Mass   12.00000
   Atom    4 Element C  Has Mass   12.00000
   Atom    5 Element C  Has Mass   12.00000
   Atom    6 Element C  Has Mass   12.00000
   Atom    7 Element O  Has Mass   15.99491
   Atom    8 Element O  Has Mass   15.99491
   Atom    9 Element O  Has Mass   15.99491
   Atom   10 Element O  Has Mass   15.99491
   Atom   11 Element O  Has Mass   15.99491
   Molecular Mass:   195.909450 amu
   Principal axes and moments of inertia in amu*Bohr^2:
                             1           2           3
    Eigenvalues --     1854.84725  2229.22675  2358.26793
          X               0.76320     0.63721    -0.10716
          Y              -0.64568     0.74571    -0.16436
          Z              -0.02483     0.19463     0.98056
   Rotational Symmetry Number is   1
   The Molecule is an Asymmetric Top
   Translational Enthalpy:        0.889 kcal/mol
   Rotational Enthalpy:           0.889 kcal/mol
   Vibrational Enthalpy:         29.083 kcal/mol
   gas constant (RT):             0.592 kcal/mol
   Translational Entropy:        41.722  cal/mol.K
   Rotational Entropy:           30.656  cal/mol.K
   Vibrational Entropy:          23.259  cal/mol.K

   Total Enthalpy:               31.453 kcal/mol
   Total Entropy:                95.637  cal/mol.K

 Total job time:  125.92s(wall), 248.38s(cpu)
        *  Thank you very much for using Q-Chem.  Have a nice day.  *
