 Q-Chem 5.4 (devel), Q-Chem, Inc., Pleasanton, CA (2021)
 Q-Chem 5.4.1 for Intel X86 EM64T Linux

User input:
--------------------------------------------------------------
$molecule
0   1
 Fe -1429.08968232 16.06969264 38.09303086    -1  0   0   0   0
C -1428.92964865 19.00579633 36.38808879    -2  0   0   0   0
C -1428.22753027 15.45758596 41.35310580    -2  0   0   0   0
C -1432.04468956 17.20677096 39.41618147    -2  0   0   0   0
C -1430.65124397 13.45064666 36.26966858    -2  0   0   0   0
C -1425.95108387 15.22488357 37.30420967    -2  0   0   0   0
O -1428.89522279 20.84705162 35.23931329    -3  0   0   0   0
O -1427.37899132 15.36086755 43.38158804    -3  0   0   0   0
O -1433.87825752 18.01894353 40.27324904    -3  0   0   0   0
O -1431.55062200 11.97007075 34.91625486    -3  0   0   0   0
O -1423.90853120 14.54764953 36.65912771    -3  0   0   0   0
H -1445.98774020 38.51129621 29.83785242      6     13    0    0    0
C -1444.70724303 39.58408921 28.57828437     1     12    14    15    16
H -1445.38138371 41.50208775 28.47555102     6     13    0    0    0
H -1442.73908904 39.21538528 29.08916208     6     13    0    0    0
C -1444.95363734 38.42259652 25.94674394     2     13    17    18    19
H -1447.00474282 38.23395474 25.52736629     6     16    0    0    0
H -1444.10186759 39.76285870 24.55354158     6     16    0    0    0
C -1443.96150583 35.69316002 25.67691223     2     16    20   21   22
H -1441.98545802 35.80287761 26.11352033     6     19    0    0    0
H -1445.01856301 34.45761377 27.02366864     6     19    0    0    0
C -1444.35273165 34.50890682 23.24340102     2     19   23   24   25
H -1446.20438186 35.03454078 22.68041579     6    22    0    0    0
H -1443.02962950 35.23366654 21.87830397     6    22    0    0    0
C -1443.96599800 31.59296907 23.36621313     2    22   26   27   28
H -1442.09793914 31.05741475 23.91384731     6    25    0    0    0
H -1445.05523277 30.79377036 24.78420653     6    25    0    0    0
C -1444.54660816 30.07504255 20.84148227     2    25   29   30   31
H -1446.58895658 30.32649940 20.42355184     6    28    0    0    0
H -1443.75723856 30.99720133 19.18810466     6    28    0    0    0
C -1443.45688993 27.44180705 20.97290061     2    28   32   33   34
H -1441.45452084 27.51861927 20.82313129     6    31    0    0    0
H -1443.88317771 26.36705714 22.73810306     6    31    0    0    0
C -1444.34083097 25.71473384 18.78764145     2    31   35   36   37
H -1446.27098134 25.04800186 19.28549044     6    34    0    0    0
H -1444.42969214 26.73666064 16.96335044     6    34    0    0    0
C -1442.61495768 23.29727538 18.39973003     2    34   38   39   40
H -1440.68609360 23.91146340 18.34975412     6    37    0    0    0
H -1442.78229395 21.84287072 19.97370195     6    37    0    0    0
C -1442.92241674 22.00762710 15.95122656     2    37   41   42   43
H -1444.76581134 21.20745388 15.72279336     6    40    0    0    0
H -1442.91243178 23.54727974 14.48318029     6    40    0    0    0
C -1440.63009120 20.33007396 15.49859791     2    40   44   45   46
H -1438.91500573 21.46213577 15.76443544     6    43    0    0    0
H -1440.48322866 18.85768083 16.90046602     6    43    0    0    0
C -1440.64203823 19.11213619 12.74372552     1    43   47   48   49
H -1442.35775452 18.12589674 12.32978450     6    46    0    0    0
H -1439.07054411 17.92123353 12.30874806     6    46    0    0    0
H -1440.50135564 20.61311975 11.39544181     6    46    0    0    0
H -1427.04818870 12.56763749 27.77763520     6     51    0    0    0
C -1426.34251757 13.77522099 29.28441714     1     50    52    53    54
H -1426.80361350 12.84583321 31.14528690     6     51    0    0    0
H -1424.33412000 13.91682185 28.76425409     6     51    0    0    0
C -1427.24178297 16.48348438 29.23513832     2     51    55    56    57
H -1426.46229677 17.30077035 30.96403830     6     54    0    0    0
H -1426.04226484 17.74045397 28.08169988     6     54    0    0    0
C -1430.20483091 16.94555572 28.82635375     2     54    58   59   60
H -1431.27130186 15.86704341 30.16038600     6     57    0    0    0
H -1430.64008839 18.98495864 29.10006993     6     57    0    0    0
C -1430.87071513 16.21939136 26.05367041     2     57   61   62   63
H -1431.44565474 17.89339074 25.09631756     6    60    0    0    0
H -1429.14651087 15.48915930 25.12991741     6    60    0    0    0
C -1432.96215910 14.21485754 25.60832783     2    60   64   65   66
H -1432.36479919 12.42256421 26.41032008     6    63    0    0    0
H -1434.57498929 15.06356463 26.42396022     6    63    0    0    0
C -1433.43082566 13.79931956 22.67171570     2    63   67   68   69
H -1435.36406130 12.83981760 22.56319088     6    66    0    0    0
H -1433.90729154 15.59625676 21.81964703     6    66    0    0    0
C -1431.39842767 12.40060253 21.02610932     2    66   70   71   72
H -1429.55109940 13.36777356 21.22336768     6    69    0    0    0
H -1431.11930730 10.40453779 21.58279324     6    69    0    0    0
C -1431.97542424 12.47328970 18.15616137     2    69   73   74   75
H -1433.72630017 11.71192835 17.55550074     6    72    0    0    0
H -1431.98359513 14.53097476 17.63277719     6    72    0    0    0
C -1429.87557042 11.26374356 16.81278918     2    72   76   77   78
H -1428.17763881 12.24937537 17.08558622     6    75    0    0    0
H -1429.71814604 9.18954419 17.18209313     6    75    0    0    0
C -1430.26794232 11.71166299 14.10686797     2    75   79   80   81
H -1432.00484669 10.91465537 13.42230305     6    78    0    0    0
H -1430.33855141 13.77717462 13.69435006     6    78    0    0    0
C -1428.00975359 10.33424632 12.68066062     2    78   82   83   84
H -1426.13679158 10.42170344 13.80053944     6    81    0    0    0
H -1428.27391844 8.27909403 12.48969548     6    81    0    0    0
C -1427.65571996 11.49605433 10.08594780     1    81   85   86   87
H -1426.49915434 10.49281915 8.87775617     6    84    0    0    0
H -1427.25041543 13.50101039 10.19002979     6    84    0    0    0
H -1429.58813796 11.47783289 9.16886675     6    84    0    0    0
H -1454.58610125 34.00148284 27.35079851     6     89    0    0    0
C -1453.70339164 32.45937602 26.21771798     1     88    90    91    92
H -1452.46564954 33.67570059 25.01433625     6     89    0    0    0
H -1452.21768707 31.45131725 27.41121645     6     89    0    0    0
C -1455.19703568 30.61588193 24.58293280     2     89    93    94    95
H -1456.75179011 29.73155485 25.76584583     6     92    0    0    0
H -1456.28618602 31.73641866 23.21058262     6     92    0    0    0
C -1453.74458070 28.60895622 23.17952980     2     92    96   97   98
H -1452.11846872 29.23012887 22.12227510     6     95    0    0    0
H -1452.65940758 27.46025214 24.60146603     6     95    0    0    0
C -1455.34288614 26.71525062 21.64309079     2     95   99   100   101
H -1456.06244238 25.26532305 22.85303343     6    98    0    0    0
H -1456.97663092 27.75755795 20.75610551     6    98    0    0    0
C -1453.71337198 25.23058402 19.65185401     2    98   102   103   104
H -1452.64697869 26.60814208 18.52177276     6    101    0    0    0
H -1452.39193542 24.09965165 20.61370338     6    101    0    0    0
C -1455.58115759 23.86082338 17.69660919     2    101   105   106   107
H -1456.57244545 22.52857597 18.90329135     6    104    0    0    0
H -1457.03759244 25.13403919 17.07861043     6    104    0    0    0
C -1454.13619699 22.71822777 15.46553198     2    104   108   109   110
H -1452.57731198 23.96138947 14.92199990     6    107    0    0    0
H -1453.20156315 21.01085897 16.16174636     6    107    0    0    0
C -1455.67692469 21.95301853 13.22186971     2    107   111   112   113
H -1457.15282874 20.61936885 13.71034059     6    110    0    0    0
H -1456.67923035 23.66525540 12.43223216     6    110    0    0    0
C -1454.04135090 20.85203117 11.03238538     2    110   114   115   116
H -1452.93307287 22.37521486 10.08583133     6    113    0    0    0
H -1452.50532112 19.73968475 11.82619003     6    113    0    0    0
C -1455.71622575 19.83007513 8.85953518     2    113   117   118   119
H -1456.53320311 18.02099566 9.35972036     6    116    0    0    0
H -1457.26628794 21.21901231 8.63510938     6    116    0    0    0
C -1454.19120980 19.42365960 6.36508058     2    116   120   121   122
H -1455.06770825 20.42241096 4.88911797     6    119    0    0    0
H -1452.43986764 20.46954061 6.82463581     6    119    0    0    0
C -1453.77011676 16.64545240 5.55334852     1    119   123   124   125
H -1452.05864578 16.64361476 4.38129304     6    122    0    0    0
H -1455.33315315 15.93058772 4.46681623     6    122    0    0    0
H -1453.10457286 15.44139030 7.10953234     6    122    0    0    0
H -1463.43304687 14.79094689 55.47971866     6     127    0    0    0
C -1461.97745331 13.42773810 54.88654410     1     126    128    129    130
H -1461.27878763 12.79511214 56.72737963     6     127    0    0    0
H -1463.02783999 11.85025497 54.23014663     6     127    0    0    0
C -1459.83898265 14.49777424 53.02096220     2     127    131    132    133
H -1460.67593735 14.29791533 51.09383220     6     130    0    0    0
H -1459.77416383 16.51794995 53.45012929     6     130    0    0    0
C -1457.18838737 13.23483248 53.35856414     2     130    134   135   136
H -1456.97600193 13.41496336 55.47053507     6     133    0    0    0
H -1457.36167866 11.27201012 52.69337547     6     133    0    0    0
C -1455.22740809 14.72353174 51.91594837     2     133   137   138   139
H -1455.94752505 14.99425731 50.07979098     6    136    0    0    0
H -1454.86908749 16.52428228 52.80727945     6    136    0    0    0
C -1452.76533005 13.22933766 51.58238972     2    136   140   141   142
H -1452.21667876 12.70922551 53.57342134     6    139    0    0    0
H -1453.10702480 11.53043718 50.68690517     6    139    0    0    0
C -1450.69063619 14.84133764 50.35945949     2    139   143   144   145
H -1451.21915467 15.27053484 48.49158270     6    142    0    0    0
H -1450.18088775 16.66243513 51.37116665     6    142    0    0    0
C -1448.41977524 13.06404134 49.89035205     2    142   146   147   148
H -1447.89877874 12.55944578 51.81561624     6    145    0    0    0
H -1449.08587052 11.42888936 48.85808873     6    145    0    0    0
C -1446.15377184 14.59722096 48.74181739     2    145   149   150   151
H -1446.71276014 15.24469752 46.88659848     6    148    0    0    0
H -1445.70904592 16.32741556 49.82182476     6    148    0    0    0
C -1443.85914252 12.90902856 48.30523333     2    148   152   153   154
H -1443.09339522 12.38861440 50.13721309     6    151    0    0    0
H -1444.18340383 11.11565145 47.41190764     6    151    0    0    0
C -1441.73479995 14.22142131 46.87405880     2    151   155   156   157
H -1440.02033069 13.08636034 46.99688877     6    154    0    0    0
H -1442.07124607 14.46142689 44.90649876     6    154    0    0    0
C -1440.98672097 16.85110152 47.84076250     2    154   158   159   160
H -1442.78641125 17.95224877 47.59958018     6    157    0    0    0
H -1440.49445824 17.01682379 49.78127582     6    157    0    0    0
C -1438.90767511 17.97039685 46.02541872     1    157   161   162   163
H -1438.51546576 19.84748096 46.81531787     6    160    0    0    0
H -1439.53433561 17.94760888 44.06563223     6    160    0    0    0
H -1437.20633836 16.88139274 46.06888152     6    160    0    0    0
H -1465.63341869 -5.14909324 30.79099577     6     165    0    0    0
C -1464.45176349 -4.34320862 32.29500608     1     164    166    167    168
H -1462.78505352 -3.79433937 31.24896293     6     165    0    0    0
H -1465.62869157 -2.75885454 32.76699710     6     165    0    0    0
C -1463.91789828 -6.02418548 34.59694530     2     165    169    170    171
H -1465.65627430 -6.53964874 35.70469687     6     168    0    0    0
H -1463.14949877 -7.78173011 34.15011819     6     168    0    0    0
C -1462.42052663 -4.48828691 36.53580843     2     168    172   173   174
H -1460.59480703 -3.90523932 35.76158449     6     171    0    0    0
H -1463.60718928 -2.83222352 36.99403150     6     171    0    0    0
C -1462.10058802 -6.01753748 39.04702067     2     171   175   176   177
H -1463.58108449 -5.66775943 40.39086682     6    174    0    0    0
H -1462.30870500 -8.04002898 38.58205946     6    174    0    0    0
C -1459.72720216 -5.19964245 40.51058578     2    174   178   179   180
H -1458.30200929 -4.99578426 39.18055037     6    177    0    0    0
H -1459.89823666 -3.43666454 41.34039845     6    177    0    0    0
C -1458.82150258 -7.27252879 42.25423377     2    177   181   182   183
H -1460.41596871 -7.63940828 43.41575126     6    180    0    0    0
H -1458.41607164 -8.78576784 40.92220172     6    180    0    0    0
C -1456.44428892 -6.56132911 43.76265750     2    180   184   185   186
H -1454.92593421 -6.62604448 42.58143883     6    183    0    0    0
H -1456.48225013 -4.59761166 44.48900932     6    183    0    0    0
C -1456.05367718 -8.55012448 45.83129747     2    183   187   188   189
H -1457.83780750 -8.82971334 46.87701086     6    186    0    0    0
H -1455.36841658 -10.33437770 45.08483058     6    186    0    0    0
C -1454.14475960 -7.76112760 47.70677499     2    186   190   191   192
H -1452.23387110 -7.35127292 46.94922084     6    189    0    0    0
H -1454.96749977 -5.95985326 48.33083894     6    189    0    0    0
C -1453.99670013 -9.60055734 50.02042523     2    189   193   194   195
H -1455.84825368 -10.34089406 50.39855596     6    192    0    0    0
H -1452.98450239 -11.23493235 49.40825221     6    192    0    0    0
C -1452.85543458 -8.40592213 52.43426487     2    192   196   197   198
H -1450.94236048 -7.56215156 51.97244736     6    195    0    0    0
H -1453.80588796 -6.67088466 52.96839125     6    195    0    0    0
C -1452.49584799 -10.36767524 54.72127030     1    195   199   200   201
H -1451.45614264 -9.53803202 56.24745067     6    198    0    0    0
H -1451.46728981 -11.92901501 53.95875367     6    198    0    0    0
H -1454.43647336 -10.98496399 55.22326682     6    198    0    0    0
H -1450.48320029 -0.50477697 25.32609742     6     203    0    0    0
C -1451.83531759 -2.01269748 25.04054478     1     202    204    205    206
H -1451.62260232 -3.62679040 26.31324936     6     203    0    0    0
H -1453.55734434 -1.21566107 25.53508873     6     203    0    0    0
C -1451.98735619 -2.88850354 22.22965391     2     203    207    208    209
H -1453.50119528 -4.25056334 21.99910441     6     206    0    0    0
H -1452.68528887 -1.26959156 21.10243224     6     206    0    0    0
C -1449.35173951 -3.74290723 21.30845092     2     206    210   211   212
H -1449.51296294 -3.99693598 19.30902463     6     209    0    0    0
H -1447.85335331 -2.23747575 21.60291571     6     209    0    0    0
C -1448.52910177 -6.27385540 22.30262227     2     209   213   214   215
H -1448.10143415 -6.19257151 24.20626324     6    212    0    0    0
H -1450.13462442 -7.65810948 22.10942595     6    212    0    0    0
C -1446.02458936 -7.09428660 20.95058936     2    212   216   217   218
H -1446.60315096 -7.30821721 19.10806352     6    215    0    0    0
H -1444.32512485 -5.91599869 21.15763508     6    215    0    0    0
C -1445.15548503 -9.59431088 22.04989162     2    215   219   220   221
H -1444.70332851 -9.60933021 24.01647254     6    218    0    0    0
H -1446.75162932 -10.88105326 21.88204992     6    218    0    0    0
C -1443.07914624 -10.65055467 20.19764352     2    218   222   223   224
H -1443.67819785 -10.35511159 18.27941453     6    221    0    0    0
H -1441.37730295 -9.48656003 20.54762430     6    221    0    0    0
C -1442.35919377 -13.47743272 20.79413441     2    221   225   226   227
H -1441.92112060 -13.80576972 22.76334955     6    224    0    0    0
H -1444.04754807 -14.69641602 20.30687608     6    224    0    0    0
C -1439.84430561 -14.21377895 19.36722693     2    224   228   229   230
H -1440.15394073 -14.21797921 17.34853310     6    227    0    0    0
H -1438.46343391 -12.78292780 19.77434761     6    227    0    0    0
C -1439.06530839 -16.88546650 19.97864526     2    227   231   232   233
H -1439.54236073 -17.28014273 22.00648047     6    230    0    0    0
H -1440.24581071 -18.25032581 18.99025108     6    230    0    0    0
C -1436.32029395 -17.64385000 19.59140104     2    230   234   235   236
H -1435.69014409 -17.41639680 17.61166262     6    233    0    0    0
H -1434.94717956 -16.36157566 20.36546352     6    233    0    0    0
C -1435.54107045 -20.43651887 20.22047418     1    233   237   238   239
H -1433.73801002 -21.03409758 19.60828831     6    236    0    0    0
H -1436.85605213 -21.62135039 19.26000713     6    236    0    0    0
H -1435.92839628 -20.54902119 22.22153177     6    236    0    0    0
H -1434.58940774 12.23683500 7.36507084     6     241    0    0    0
C -1436.16313692 12.94307449 8.54963227     1     240    242    243    244
H -1436.81801941 11.64286244 10.06930851     6     241    0    0    0
H -1435.28133619 14.47928590 9.75966134     6     241    0    0    0
C -1438.50640956 13.78961953 6.88507790     2     241    245    246    247
H -1438.81745233 12.15851166 5.70097814     6     244    0    0    0
H -1440.32317137 14.10062222 8.01992112     6     244    0    0    0
C -1437.81933263 16.09424141 5.25283564     2     244    248   249   250
H -1439.66032781 16.51889784 4.23902315     6     247    0    0    0
H -1437.57339658 17.76032337 6.41724817     6     247    0    0    0
C -1435.60607905 15.83656492 3.38643314     2     247   251   252   253
H -1435.41074153 17.56105896 2.46622058     6    250    0    0    0
H -1433.78788250 15.56530003 4.23585639     6    250    0    0    0
C -1435.86140093 13.62897564 1.51441536     2    250   254   255   256
H -1435.68376619 11.82351921 2.53128962     6    253    0    0    0
H -1437.74723160 13.83097653 0.73187333     6    253    0    0    0
C -1433.87483214 13.81701448 -0.65491954     2    253   257   258   259
H -1434.82841250 12.98074387 -2.30755978     6    256    0    0    0
H -1433.56720372 15.86560506 -1.02346195     6    256    0    0    0
C -1431.46808976 12.42345680 0.18583310     2    256   260   261   262
H -1430.88945022 13.04652761 1.98127950     6    259    0    0    0
H -1431.85350968 10.43979923 0.44537505     6    259    0    0    0
C -1429.23760856 12.59826816 -1.57767279     2    259   263   264   265
H -1429.64274412 11.54566941 -3.28208936     6    262    0    0    0
H -1429.06360340 14.62660421 -2.09175775     6    262    0    0    0
C -1426.82834676 11.62115174 -0.42473357     2    262   266   267   268
H -1426.28050603 13.25573048 0.73352399     6    265    0    0    0
H -1427.28853545 9.87197934 0.58421755     6    265    0    0    0
C -1424.96394231 11.21899496 -2.53338790     2    265   269   270   271
H -1425.73440873 10.27387021 -4.11567048     6    268    0    0    0
H -1424.32462560 12.99565053 -3.26830269     6    268    0    0    0
C -1422.46337193 9.74772764 -1.88434119     2    268   272   273   274
H -1421.58360459 10.83542916 -0.30150289     6    271    0    0    0
H -1422.72756156 7.98607358 -0.95106343     6    271    0    0    0
C -1420.67293408 9.23856736 -4.08771401     1    271   275   276   277
H -1421.49880319 8.06003123 -5.49214123     6    274    0    0    0
H -1419.03022722 7.98072406 -3.32868588     6    274    0    0    0
H -1419.95948930 10.97355804 -5.03959229     6    274    0    0    0
H -1458.13723559 1.00745503 16.25892919     6     279    0    0    0
C -1456.92621677 0.63010339 14.69108139     1     278    280    281    282
H -1456.87992403 -1.34080535 14.35407880     6     279    0    0    0
H -1457.35429998 1.50011659 12.81361449     6     279    0    0    0
C -1454.13685742 1.15806919 15.54876880     2     279    283    284    285
H -1453.89496165 3.09245279 15.86135233     6     282    0    0    0
H -1453.86495540 0.24778803 17.23941243     6     282    0    0    0
C -1452.20326073 0.51292497 13.41977412     2     282    286   287   288
H -1453.00990750 -1.01482468 12.19294056     6     285    0    0    0
H -1452.10320223 2.30374270 12.25222968     6     285    0    0    0
C -1449.61285686 -0.12949822 14.54529882     2     285   289   290   291
H -1449.65172295 1.01357216 16.21207162     6    288    0    0    0
H -1449.39622652 -1.94668573 15.14242187     6    288    0    0    0
C -1447.31862335 0.39325995 12.90682061     2    288   292   293   294
H -1447.54596893 -0.16118051 10.97241095     6    291    0    0    0
H -1447.07119030 2.38272992 12.91958563     6    291    0    0    0
C -1444.86276051 -0.74435073 14.11679168     2    291   295   296   297
H -1444.57139233 -0.04320199 16.07067806     6    294    0    0    0
H -1445.34535827 -2.66330336 14.66410683     6    294    0    0    0
C -1442.41963588 -0.74349239 12.42754109     2    294   298   299   300

   18   -1830.5220598631      4.01E-09 Convergence criterion met
 Total energy in the final basis set = -1828.27796212
 Total job time:  17.33s(wall), 30.79s(cpu)
        *  Thank you very much for using Q-Chem.  Have a nice day.  *

User input: 2 of 2

                  Welcome to Q-Chem
     A Quantum Leap Into The Future Of Chemistry

 Q-Chem 5.4 (devel), Q-Chem, Inc., Pleasanton, CA (2021)

 E. Epifanovsky,  A. T. B. Gilbert,  Xintian Feng,  Joonho Lee,  Yuezhi Mao,
 N. Mardirossian,  P. Pokhilko,  A. White,  M. Wormit,  M. P. Coons,
 A. L. Dempwolff,  Zhengting Gan,  D. Hait,  P. R. Horn,  L. D. Jacobson,
 I. Kaliman,  J. Kussmann,  A. W. Lange,  Ka Un Lao,  D. S. Levine,  Jie Liu,
 S. C. McKenzie,  A. F. Morrison,  K. Nanda,  F. Plasser,  D. R. Rehn,
 M. L. Vidal,  Zhi-Qiang You,  Ying Zhu,  B. Alam,  B. Albrecht,
 A. Aldossary,  E. Alguire,  J. H. Andersen,  D. Barton,  K. Begam,  A. Behn,
 Y. A. Bernard,  E. J. Berquist,  H. Burton,  A. Carreras,  K. Carter-Fenk,
 R. Chakraborty,  A. D. Chien,  K. D. Closser,  V. Cofer-Shabica,
 S. Dasgupta,  Jia Deng,  M. de Wergifosse,  M. Diedenhofen,  Hainam Do,
 S. Ehlert,  Po-Tung Fang,  S. Fatehi,  Qingguo Feng,  T. Friedhoff,
 J. Gayvert,  Qinghui Ge,  G. Gidofalvi,  M. Goldey,  J. Gomes,
 C. Gonzalez-Espinoza,  S. Gulania,  A. Gunina,  M. W. D. Hanson-Heine,
 P. H. P. Harbach,  A. W. Hauser,  M. F. Herbst,  M. Hernandez Vera,
 M. Hodecker,  Z. C. Holden,  S. Houck,  Xunkun Huang,  Kerwin Hui,
 B. C. Huynh,  M. Ivanov,  Hyunjun Ji,  Hanjie Jiang,  B. Kaduk,  S. Kaehler,
 K. Khistyaev,  Jaehoon Kim,  P. Klunzinger,  Z. Koczor-Benda,
 Joong Hoon Koh,  D. Kosenkov,  L. Koulias,  T. Kowalczyk,  C. M. Krauter,
 K. Kue,  A. Kunitsa,  T. Kus,  A. Landau,  K. V. Lawler,  D. Lefrancois,
 S. Lehtola,  Rain Li,  Yi-Pei Li,  Jiashu Liang,  M. Liebenthal,
 Hung-Hsuan Lin,  You-Sheng Lin,  Fenglai Liu,  Kuan-Yu Liu,
 M. Loipersberger,  A. Luenser,  A. Manjanath,  P. Manohar,  E. Mansoor,
 S. F. Manzer,  Shan-Ping Mao,  A. V. Marenich,  T. Markovich,  S. Mason,
 S. A. Maurer,  P. F. McLaughlin,  M. F. S. J. Menger,  J.-M. Mewes,
 S. A. Mewes,  P. Morgante,  J. W. Mullinax,  K. J. Oosterbaan,  G. Paran,
 Alexander C. Paul,  Suranjan K. Paul,  F. Pavosevic,  Zheng Pei,  S. Prager,
 E. I. Proynov,  E. Ramos,  B. Rana,  A. E. Rask,  A. Rettig,  R. M. Richard,
 F. Rob,  E. Rossomme,  T. Scheele,  M. Scheurer,  M. Schneider,
 N. Sergueev,  S. M. Sharada,  W. Skomorowski,  D. W. Small,  C. J. Stein,
 Yu-Chuan Su,  E. J. Sundstrom,  Zhen Tao,  J. Thirman,  T. Tsuchimochi,
 N. M. Tubman,  S. P. Veccham,  O. Vydrov,  J. Wenzel,  J. Witte,  A. Yamada,
 Kun Yao,  S. Yeganeh,  S. R. Yost,  A. Zech,  Igor Ying Zhang,  Xing Zhang,
 Yu Zhang,  D. Zuev,  A. Aspuru-Guzik,  A. T. Bell,  N. A. Besley,
 K. B. Bravaya,  B. R. Brooks,  D. Casanova,  Jeng-Da Chai,  S. Coriani,
 C. J. Cramer,  A. E. DePrince, III,  R. A. DiStasio Jr.,  A. Dreuw,
 B. D. Dunietz,  T. R. Furlani,  W. A. Goddard III,  S. Grimme,
 S. Hammes-Schiffer,  T. Head-Gordon,  W. J. Hehre,  Chao-Ping Hsu,
 T.-C. Jagau,  Yousung Jung,  A. Klamt,  Jing Kong,  D. S. Lambrecht,
 WanZhen Liang,  N. J. Mayhall,  C. W. McCurdy,  J. B. Neaton,
 C. Ochsenfeld,  J. A. Parkhill,  R. Peverati,  V. A. Rassolov,  Yihan Shao,
 L. V. Slipchenko,  T. Stauch,  R. P. Steele,  J. E. Subotnik,
 A. J. W. Thom,  A. Tkatchenko,  D. G. Truhlar,  T. Van Voorhis,
 T. A. Wesolowski,  K. B. Whaley,  H. L. Woodcock III,  P. M. Zimmerman,
 S. Faraji,  P. M. W. Gill,  M. Head-Gordon,  J. M. Herbert,  A. I. Krylov

 Additional authors for Version 5.4.1:
 S. Kotaru,  Shaozhi Li,  Xiangyuan Li,  F. Matz,  A. Molle,  Haisheng Ren,
 Yingli Su,  Hung-Yi Tsai,  C. Utku,  Fang Wang

 Contributors to earlier versions of Q-Chem not listed above:
 R. D. Adamson,  B. Austin,  R. Baer,  J. Baker,  G. J. O. Beran,
 K. Brandhorst,  S. T. Brown,  E. F. C. Byrd,  A. K. Chakraborty,
 G. K. L. Chan,  Chun-Min Chang,  Yunqing Chen,  C.-L. Cheng,
 Siu Hung Chien,  D. M. Chipman,  D. L. Crittenden,  H. Dachsel,
 R. J. Doerksen,  A. D. Dutoi,  R. G. Edgar,  J. Fosso-Tande,
 L. Fusti-Molnar,  D. Ghosh,  A. Ghysels,  A. Golubeva-Zadorozhnaya,
 J. Gonthier,  M. S. Gordon,  S. R. Gwaltney,  G. Hawkins,  J. E. Herr,
 A. Heyden,  S. Hirata,  E. G. Hohenstein,  G. Kedziora,  F. J. Keil,
 C. Kelley,  Jihan Kim,  R. A. King,  R. Z. Khaliullin,  P. P. Korambath,
 W. Kurlancheek,  A. Laurent,  A. M. Lee,  M. S. Lee,  S. V. Levchenko,
 Ching Yeh Lin,  D. Liotard,  E. Livshits,  R. C. Lochan,  I. Lotan,
 L. A. Martinez-Martinez,  P. E. Maslen,  N. Nair,  D. P. O'Neill,
 D. Neuhauser,  E. Neuscamman,  C. M. Oana,  R. Olivares-Amaya,  R. Olson,
 T. M. Perrine,  B. Peters,  P. A. Pieniazek,  A. Prociuk,  Y. M. Rhee,
 J. Ritchie,  M. A. Rohrdanz,  E. Rosta,  N. J. Russ,  H. F. Schaefer III,
 M. W. Schmidt,  N. E. Schultz,  S. Sharma,  N. Shenvi,  C. D. Sherrill,
 A. C. Simmonett,  A. Sodt,  T. Stein,  D. Stuck,  K. S. Thanthiriwatte,
 V. Vanovschi,  L. Vogt,  Tao Wang,  A. Warshel,  M. A. Watson,
 C. F. Williams,  Q. Wu,  X. Xu,  Jun Yang,  W. Zhang,  Yan Zhao

 Please cite Q-Chem as follows:
 Y. Shao et al., Mol. Phys. 113, 184-215 (2015)
 DOI: 10.1080/00268976.2014.952696

 Q-Chem 5.4.1 for Intel X86 EM64T Linux

 Parts of Q-Chem use Armadillo 9.900.5 (Nocturnal Misbehaviour).
 http://arma.sourceforge.net/

 Q-Chem begins on Fri Jul  1 20:00:20 2022

 Host: p09r14n09.grace.hpc.yale.internal
0

     Scratch files written to /home/tl686/scratch60/qchem_dev/scratch/qchem8857//
 Processing $rem in /home/tl686/qchem_dev/qchem/config/preferences:
 Processing $rem in /home/tl686/.qchemrc:
Applying user defined connections for MM calculations
The previous job contains 0 fragments, simply inherited here

 Checking the input file for inconsistencies... 	...done.

--------------------------------------------------------------
User input:
--------------------------------------------------------------

$molecule
READ
$end

$qm_atoms
1:11
$end

$force_field_params
NumAtomTypes 3
AtomType -1   0.0238     3.11   0.2868
AtomType -2   0.07124    3.30   0.6597
AtomType -3  -0.0760     3.09   0.1434
$end

$rem
     JOBTYPE  freq
     METHOD   bp86
     BASIS    def2-msvp
     MAX_SCF_CYCLES   800
     INPUT_BOHR TRUE
     SYM_IGNORE TRUE
     SCF_GUESS     read
     user_connect            true
     qm_mm_interface         ONIOM
     force_field             oplsaa
$end

--------------------------------------------------------------

    2   -1830.5220598632      8.76E-09 Convergence criterion met
 Total energy in the final basis set = -1828.27796212

                    Orbital Energies (a.u.)
 --------------------------------------------------------------

 Alpha MOs
 -- Occupied --
******** -29.6328 -25.5926 -25.5813 -25.5748 -18.8909 -18.8819 -18.8791
-18.8756 -18.8747 -10.0581 -10.0482 -10.0476 -10.0453 -10.0390  -3.3174
 -2.1537  -2.1317  -2.1167  -1.0691  -1.0564  -1.0528  -1.0515  -1.0355
 -0.5738  -0.5255  -0.5204  -0.5171  -0.5121  -0.4568  -0.4481  -0.4412
 -0.4343  -0.4288  -0.4251  -0.4238  -0.4205  -0.4161  -0.4136  -0.4081
 -0.4057  -0.3956  -0.3911  -0.3810  -0.2781  -0.2666  -0.2304  -0.2216

          Ground-State Mulliken Net Atomic Charges

     Atom                 Charge (a.u.)
  ----------------------------------------
      1 Fe                   -0.463997
      2 C                     0.206763
      3 C                     0.200531
      4 C                     0.195851
      5 C                     0.235317
      6 C                     0.185801
      7 O                    -0.105161
      8 O                    -0.111242
      9 O                    -0.096757
     10 O                    -0.106127
     11 O                    -0.140978
  ----------------------------------------
  Sum of atomic charges =     0.000000

                    Cartesian Multipole Moments
 -----------------------------------------------------------------
    Charge (ESU x 10^10)
                -0.0000
    Dipole Moment (Debye)
         X      -0.5898124292      Y      -0.0644925017      Z       0.2964660904
       Tot       0.6632722874
    Quadrupole Moments (Debye-Ang)
        XX     822.4830     XY      44.2268     YY     -70.2920
        XZ    -236.4316     YZ       0.9598     ZZ     -57.9533
