 Q-Chem 5.4 (devel), Q-Chem, Inc., Pleasanton, CA (2021)
 Q-Chem 5.4.1 for Intel X86 EM64T Linux

User input:
--------------------------------------------------------------
$molecule
0   1
 Fe 1020.91723807 26.56173244 52.18241131    -1  0   0   0   0
C 1019.47532889 27.44999116 49.25737303    -2  0   0   0   0
C 1022.54495504 26.18856213 55.11179352    -2  0   0   0   0
C 1019.98808082 23.35926644 51.83047527    -2  0   0   0   0
C 1023.92035410 26.93203680 50.43434445    -2  0   0   0   0
C 1018.84029987 28.86084636 53.63661192    -2  0   0   0   0
O 1018.65293532 28.09414567 47.25498540    -3  0   0   0   0
O 1023.40212549 26.03128635 57.20262820    -3  0   0   0   0
O 1019.41176448 21.23803503 51.79592631    -3  0   0   0   0
O 1025.81888218 26.81851909 49.46310239    -3  0   0   0   0
O 1017.39618458 30.15093173 54.47052267    -3  0   0   0   0
H 1017.53129568 21.60041301 23.80752399      6     13    0    0    0
C 1017.58690720 23.60424026 23.36916384     1     12    14    15    16
H 1016.47409996 23.99006890 21.72467033     6     13    0    0    0
H 1016.63731487 24.63375563 24.82818630     6     13    0    0    0
C 1020.24380406 24.66594862 23.23367858     2     13    17    18    19
H 1021.45162170 23.79879358 21.70966818     6     16    0    0    0
H 1020.25804411 26.68106893 22.65006977     6     16    0    0    0
C 1021.62525647 24.07542930 25.69439103     2     16    20   21   22
H 1020.63487677 24.82729969 27.19939317     6     19    0    0    0
H 1021.67903629 22.04670208 26.17622283     6     19    0    0    0
C 1024.36464229 25.15546732 25.75359890     2     19   23   24   25
H 1025.40263133 24.41664524 24.25627534     6    22    0    0    0
H 1024.29994047 27.10318766 25.47086443     6    22    0    0    0
C 1025.60914329 24.51465088 28.25253228     2    22   26   27   28
H 1024.49484035 25.18396407 29.82543748     6    25    0    0    0
H 1025.94249239 22.46080634 28.71292056     6    25    0    0    0
C 1028.13551347 26.06595527 28.30075705     2    25   29   30   31
H 1029.34491971 25.77276298 26.65344065     6    28    0    0    0
H 1027.76053108 28.14618653 28.29369159     6    28    0    0    0
C 1029.68743064 25.39762943 30.75797466     2    28   32   33   34
H 1028.74266337 25.85597315 32.44457782     6    31    0    0    0
H 1030.12754532 23.39314760 30.77367776     6    31    0    0    0
C 1032.25994909 26.66663011 30.84708045     2    31   35   36   37
H 1033.28752468 26.34705089 29.21565485     6    34    0    0    0
H 1031.79696951 28.57638287 30.86714337     6    34    0    0    0
C 1034.03731094 26.06997443 33.14119940     2    34   38   39   40
H 1032.86328580 26.90074585 34.64815090     6    37    0    0    0
H 1034.10598960 24.06084065 33.46502003     6    37    0    0    0
C 1036.48629117 27.53770935 32.78780504     2    37   41   42   43
H 1037.60616577 27.01591425 31.08488412     6    40    0    0    0
H 1036.19528293 29.49004441 32.99210188     6    40    0    0    0
C 1038.26775374 26.90510592 34.98565313     2    40   44   45   46
H 1037.88608912 27.57783660 36.78594658     6    43    0    0    0
H 1038.39376398 24.90788053 35.26272668     6    43    0    0    0
C 1040.79415368 28.22242725 34.31242745     1    43   47   48   49
H 1041.59469917 27.49674507 32.48591834     6    46    0    0    0
H 1042.14785992 27.62467477 35.69941907     6    46    0    0    0
H 1040.93149108 30.18268451 34.17722475     6    46    0    0    0
H 1022.99293929 33.59267228 46.37481803     6     51    0    0    0
C 1024.71463825 32.70340315 46.10472172     1     50    52    53    54
H 1026.09062230 34.07542021 46.18577123     6     51    0    0    0
H 1025.05219232 31.68809506 47.77952841     6     51    0    0    0
C 1024.69421573 31.34913060 43.61594072     2     51    55    56    57
H 1023.43149838 29.83628382 43.81714913     6     54    0    0    0
H 1023.98441857 32.43989029 42.01736908     6     54    0    0    0
C 1027.16344120 30.19554763 42.73082418     2     54    58   59   60
H 1028.17550536 29.41730460 44.29545016     6     57    0    0    0
H 1026.67364128 28.70428867 41.47195050     6     57    0    0    0
C 1029.01907310 32.04266356 41.34428990     2     57   61   62   63
H 1027.88851029 32.71317106 39.68308637     6    60    0    0    0
H 1029.48263392 33.63317217 42.38878737     6    60    0    0    0
C 1031.57855137 30.85832367 40.18934198     2    60   64   65   66
H 1032.94040142 30.28984948 41.60896665     6    63    0    0    0
H 1031.08966179 29.23871857 38.99362891     6    63    0    0    0
C 1032.72446182 32.94572275 38.34572835     2    63   67   68   69
H 1034.01125061 32.11625924 36.95256838     6    66    0    0    0
H 1031.06878951 33.81757631 37.38597978     6    66    0    0    0
C 1034.11541020 35.09939401 39.83262557     2    66   70   71   72
H 1032.83533465 36.03087471 41.09278537     6    69    0    0    0
H 1035.41298640 34.09586734 41.08674853     6    69    0    0    0
C 1035.36984334 37.20377014 38.29794397     2    69   73   74   75
H 1036.90532886 36.58717124 37.00945522     6    72    0    0    0
H 1033.84906318 38.13818265 37.27299577     6    72    0    0    0
C 1036.66671700 39.28295122 39.76765494     2    72   76   77   78
H 1035.41758153 40.02701737 41.20069793     6    75    0    0    0
H 1038.14013322 38.49383760 41.07306647     6    75    0    0    0
C 1037.52572637 41.44049420 38.25248133     2    75   79   80   81
H 1039.30468586 40.99308694 37.23382761     6    78    0    0    0
H 1036.13473088 41.74303825 36.70965280     6    78    0    0    0
C 1037.82620212 43.94070864 39.66766170     2    78   82   83   84
H 1035.91884206 44.28760906 40.67722787     6    81    0    0    0
H 1038.96165880 43.84812771 41.51866814     6    81    0    0    0
C 1038.75275479 46.17116272 38.01665119     1    81   85   86   87
H 1040.08226726 47.33380664 38.98457402     6    84    0    0    0
H 1037.14631274 47.46358781 37.62074908     6    84    0    0    0
H 1039.71319496 45.57825607 36.16034128     6    84    0    0    0
H 1042.11587474 -1.29437631 39.02963576     6     89    0    0    0
C 1043.33487138 -0.62746567 37.44090517     1     88    90    91    92
H 1044.73543812 0.27629420 38.66136762     6     89    0    0    0
H 1044.22209579 -2.30602257 36.70721101     6     89    0    0    0
C 1041.64159065 0.97990873 35.65344594     2     89    93    94    95
H 1039.99963917 -0.29652328 35.15277602     6     92    0    0    0
H 1040.69561324 2.46084109 36.63075117     6     92    0    0    0
C 1043.13737789 1.75640696 33.21892190     2     92    96   97   98
H 1045.08284999 2.33380855 33.67324569     6     95    0    0    0
H 1043.27858456 -0.05563407 32.10733528     6     95    0    0    0
C 1041.77637768 3.73048354 31.80701808     2     95   99   100   101
H 1039.99209957 3.03891866 31.22080948     6    98    0    0    0
H 1041.21021045 5.27160692 32.97716525     6    98    0    0    0
C 1043.21783866 4.84239710 29.61126352     2    98   102   103   104
H 1045.14160343 5.34799849 29.99692199     6    101    0    0    0
H 1043.31826505 3.47448968 28.17020749     6    101    0    0    0
C 1042.23373766 7.37619185 28.47093780     2    101   105   106   107
H 1040.41230819 7.02735830 27.71591146     6    104    0    0    0
H 1041.99550698 8.88053059 29.91954260     6    104    0    0    0
C 1043.72416975 8.54620993 26.45073899     2    104   108   109   110
H 1045.76194294 8.59462218 26.68268997     6    107    0    0    0
H 1043.66205305 7.38538036 24.71110418     6    107    0    0    0
C 1042.95978195 11.38100364 26.05532533     2    107   111   112   113
H 1041.00252274 11.81268012 25.98302931     6    110    0    0    0
H 1043.57730237 12.47618729 27.57885779     6    110    0    0    0
C 1044.13976909 12.45293575 23.71486101     2    110   114   115   116
H 1046.24827716 12.25940260 23.49064055     6    113    0    0    0
H 1043.20348578 11.37064117 22.26174856     6    113    0    0    0
C 1043.58155239 15.18592412 23.34958010     2    113   117   118   119
H 1041.91270817 15.74189272 24.46083599     6    116    0    0    0
H 1044.91716207 16.27688854 24.44651710     6    116    0    0    0
C 1043.20813212 16.30178859 20.70440435     2    116   120   121   122
H 1044.97793417 15.98824522 19.62525786     6    119    0    0    0
H 1041.58173524 15.21593216 19.92220125     6    119    0    0    0
C 1042.51465525 19.16485604 20.83547201     1    119   123   124   125
H 1041.32230476 19.70288410 19.21563023     6    122    0    0    0
H 1044.30378895 20.33376964 20.78953900     6    122    0    0    0
H 1041.61246362 19.72713879 22.60459402     6    122    0    0    0
H 1042.94280516 0.24169934 45.47796575     6     127    0    0    0
C 1041.18574665 1.35475296 45.51229739     1     126    128    129    130
H 1041.70126021 3.25900329 46.33346795     6     127    0    0    0
H 1040.87646349 1.69479995 43.47001789     6     127    0    0    0
C 1038.88260950 0.41127331 47.15495711     2     127    131    132    133
H 1038.66968077 -1.56970925 46.58133569     6     130    0    0    0
H 1039.18103623 0.33797106 49.12157977     6     130    0    0    0
C 1036.51067726 2.00245024 46.58785455     2     130    134   135   136
H 1037.07434951 3.92554265 47.10815876     6     133    0    0    0
H 1035.82510384 1.99693632 44.64341585     6     133    0    0    0
C 1034.11620739 1.26950473 48.13003578     2     133   137   138   139
H 1032.91094123 0.00435339 47.09148989     6    136    0    0    0
H 1034.84293358 0.48134627 49.85409986     6    136    0    0    0
C 1032.33824637 3.45378513 48.76744224     2    136   140   141   142
H 1033.35971290 4.87385767 49.80971175     6    139    0    0    0
H 1031.38992361 4.17432638 47.00960698     6    139    0    0    0
C 1030.08945897 2.88421416 50.65014782     2    139   143   144   145
H 1029.10155724 1.07938163 50.22634337     6    142    0    0    0
H 1030.83306130 2.39083242 52.49784639     6    142    0    0    0
C 1028.26103065 5.08081799 50.76470225     2    142   146   147   148
H 1029.30479563 6.67500822 51.51624972     6    145    0    0    0
H 1027.58428461 5.48640962 48.81386855     6    145    0    0    0
C 1025.86348000 4.41539285 52.38721973     2    145   149   150   151
H 1024.55326194 3.47706200 51.16237913     6    148    0    0    0
H 1026.23459694 3.13034374 53.92988903     6    148    0    0    0
C 1024.44331864 6.70957669 53.41931124     2    148   152   153   154
H 1025.72394996 7.73188803 54.69641145     6    151    0    0    0
H 1023.78640975 7.86846115 51.77776072     6    151    0    0    0
C 1022.12513388 5.83735368 54.85328215     2    151   155   156   157
H 1021.42414141 4.05849206 54.08874653     6    154    0    0    0
H 1022.84961944 5.24060322 56.67284398     6    154    0    0    0
C 1020.20390679 8.09034790 55.54404200     2    154   158   159   160
H 1021.54010951 9.76890690 55.48344634     6    157    0    0    0
H 1018.79570117 8.14041108 54.01482965     6    157    0    0    0
C 1019.21920879 7.61569579 58.21902908     1    157   161   162   163
H 1020.60200397 7.06502626 59.65800201     6    160    0    0    0
H 1017.81465999 6.12825442 58.09057807     6    160    0    0    0
H 1018.37110984 9.44260038 58.82934681     6    160    0    0    0
H 1058.68185367 15.19227942 58.20200488     6     165    0    0    0
C 1058.55611120 13.18011393 57.82390370     1     164    166    167    168
H 1059.94492795 12.82585070 56.36230992     6     165    0    0    0
H 1059.28762738 11.93260016 59.37717610     6     165    0    0    0
C 1055.83577968 12.21157404 57.62863620     2     165    169    170    171
H 1054.96269009 11.69922246 59.50105038     6     168    0    0    0
H 1054.84199020 13.91449703 57.15927655     6     168    0    0    0
C 1055.47625909 10.29461461 55.51163163     2     168    172   173   174
H 1055.68566538 11.00658672 53.51293915     6     171    0    0    0
H 1056.79785147 8.77940310 55.60657428     6     171    0    0    0
C 1052.80932220 9.51297217 55.71987818     2     171   175   176   177
H 1052.26672240 8.98603493 57.63399537     6    174    0    0    0
H 1051.47238778 11.00528329 55.12704952     6    174    0    0    0
C 1052.31765971 7.05189094 54.16766028     2    174   178   179   180
H 1052.30764901 7.51803697 52.14134404     6    177    0    0    0
H 1053.86339782 5.74198727 54.36458646     6    177    0    0    0
C 1049.67644190 5.91575499 55.01848813     2    177   181   182   183
H 1049.91303986 4.91161231 56.86418648     6    180    0    0    0
H 1048.03638822 7.23807214 54.85582577     6    180    0    0    0
C 1048.77796444 3.96844727 53.22741393     2    180   184   185   186
H 1048.51684011 4.84646272 51.41843690     6    183    0    0    0
H 1050.37764938 2.54736785 52.98575779     6    183    0    0    0
C 1046.27025295 2.65123271 54.10348226     2    183   187   188   189
H 1046.57981036 1.74494825 55.97379881     6    186    0    0    0
H 1044.67584947 3.96553541 54.59400579     6    186    0    0    0
C 1045.28173726 0.80474017 52.21007498     2    186   190   191   192
H 1044.59701242 1.94946451 50.57780249     6    189    0    0    0
H 1046.92132302 -0.28579589 51.51505052     6    189    0    0    0
C 1043.02587377 -1.01022301 52.96639677     2    189   193   194   195
H 1043.35512827 -1.48526303 54.99012117     6    192    0    0    0
H 1041.34070067 -0.01899335 52.73149877     6    192    0    0    0
C 1042.88630614 -3.52502975 51.31316025     2    192   196   197   198
H 1043.13825573 -3.06484620 49.18145018     6    195    0    0    0
H 1044.60539938 -4.74291572 51.71485494     6    195    0    0    0
C 1040.33384174 -4.83703441 51.77172002     1    195   199   200   201
H 1040.13801931 -6.47151625 50.56280276     6    198    0    0    0
H 1038.78735498 -3.62777252 51.30001040     6    198    0    0    0
H 1040.08243962 -5.41337220 53.72626872     6    198    0    0    0
H 1052.41657068 17.85326182 53.21330121     6     203    0    0    0
C 1054.22684055 17.84740265 52.25041192     1     202    204    205    206
H 1054.87680002 15.93855796 51.97226113     6     203    0    0    0
H 1053.93888590 18.71717413 50.40129889     6     203    0    0    0
C 1056.47296016 19.08362503 53.54157195     2     203    207    208    209
H 1057.12968501 18.19672936 55.31936632     6     206    0    0    0
H 1058.15010117 18.77467945 52.45667203     6     206    0    0    0
C 1055.96394857 21.96425565 54.00264862     2     206    210   211   212
H 1057.67099872 23.13748418 54.07220181     6     209    0    0    0
H 1054.99262583 22.94111702 52.47268681     6     209    0    0    0
C 1054.46515108 22.13684953 56.52530922     2     209   213   214   215
H 1052.61042935 21.19747766 56.58520618     6    212    0    0    0
H 1055.57199411 21.15899642 58.05196262     6    212    0    0    0
C 1054.20697118 24.94596502 57.30106067     2    212   216   217   218
H 1056.01984187 25.81456140 57.63238698     6    215    0    0    0
H 1052.87357429 26.10631514 56.10886134     6    215    0    0    0
C 1053.01353974 25.33576409 59.90899850     2    215   219   220   221
H 1051.12634144 24.70353971 59.85751267     6    218    0    0    0
H 1053.85353728 24.12690041 61.38674236     6    218    0    0    0
C 1053.02056165 28.15797724 60.72997499     2    218   222   223   224
H 1054.89157589 28.76952310 60.63220012     6    221    0    0    0
H 1051.69556129 29.25135552 59.64725365     6    221    0    0    0
C 1051.97327267 28.50729450 63.38697097     2    221   225   226   227
H 1050.09220020 27.80492390 63.38456277     6    224    0    0    0
H 1052.95192932 27.22955904 64.52987182     6    224    0    0    0
C 1052.01386561 31.35990761 64.16455254     2    224   228   229   230
H 1053.93027434 31.82700663 64.91768860     6    227    0    0    0
H 1051.84328033 32.43099858 62.39785994     6    227    0    0    0
C 1050.07252172 32.38273552 65.99798068     2    227   231   232   233
H 1048.21052781 31.90455592 65.38010485     6    230    0    0    0
H 1050.28224056 31.43371768 67.81861902     6    230    0    0    0
C 1050.44337225 35.26353095 66.20553956     2    230   234   235   236
H 1052.52077249 35.53855550 65.91033478     6    233    0    0    0
H 1049.58429712 36.11560712 64.62585553     6    233    0    0    0
C 1049.67032083 36.58493252 68.70613452     1    233   237   238   239
H 1050.47762781 38.56159492 69.06050565     6    236    0    0    0
H 1050.39637810 35.51239748 70.26057681     6    236    0    0    0
H 1047.61746027 36.47939358 69.02360882     6    236    0    0    0
H 1046.11507016 35.50930876 35.37043826     6     241    0    0    0
C 1044.40627934 35.54311747 34.29262961     1     240    242    243    244
H 1044.76538033 34.28964377 32.66604267     6     241    0    0    0
H 1042.89956292 34.73803399 35.58614414     6     241    0    0    0
C 1044.14767485 38.25485521 33.63122400     2     241    245    246    247
H 1043.46038847 39.36472040 35.24742167     6     244    0    0    0
H 1046.04520689 39.04881415 33.05097700     6     244    0    0    0
C 1042.01530657 38.53746128 31.63858581     2     244    248   249   250
H 1042.57549712 37.62131620 29.91496199     6     247    0    0    0
H 1040.39496582 37.42982231 32.32665391     6     247    0    0    0
C 1041.41357464 41.40500809 31.07028832     2     247   251   252   253
H 1039.48736607 41.66178529 30.60909568     6    250    0    0    0
H 1041.62801629 42.56505843 32.82237891     6    250    0    0    0
C 1042.94297640 42.28127053 28.78498225     2    250   254   255   256
H 1044.94144201 41.87439226 29.00864595     6    253    0    0    0
H 1042.27359082 41.37554095 27.04291411     6    253    0    0    0
C 1042.65462484 45.13579217 28.31142799     2    253   257   258   259
H 1043.17035585 45.54641272 26.36873471     6    256    0    0    0
H 1040.59000678 45.54828565 28.26589427     6    256    0    0    0
C 1043.97540215 46.98582018 30.12247689     2    256   260   261   262
H 1043.49923931 46.68256737 32.10864772     6    259    0    0    0
H 1046.03051701 46.80689087 30.31771393     6    259    0    0    0
C 1043.15930866 49.79290704 29.21965190     2    259   263   264   265
H 1044.13149511 49.96170176 27.30763308     6    262    0    0    0
H 1041.09206018 49.71333691 28.86071071     6    262    0    0    0
C 1044.00391570 51.90357628 31.08213861     2    262   266   267   268
H 1042.33758229 52.25533079 32.33347687     6    265    0    0    0
H 1045.57352786 51.20147079 32.12881738     6    265    0    0    0
C 1044.95036062 54.20170846 29.67460151     2    265   269   270   271
H 1046.32100393 53.51390732 28.32128777     6    268    0    0    0
H 1043.26890784 54.97159259 28.81822626     6    268    0    0    0
C 1045.97324869 56.46674297 31.25944691     2    268   272   273   274
H 1044.84046273 56.93453637 32.95945867     6    271    0    0    0
H 1047.95092913 56.15023246 31.81153244     6    271    0    0    0
C 1046.16929326 58.93551344 29.66994932     1    271   275   276   277
H 1047.93617604 59.19674631 28.69680221     6    274    0    0    0
H 1045.70475244 60.50458445 30.84237524     6    274    0    0    0
H 1044.51027188 59.14926018 28.41729634     6    274    0    0    0
H 1055.62674889 14.07097107 42.96847385     6     279    0    0    0
C 1053.84984891 14.28243998 43.94676458     1     278    280    281    282
H 1052.33601868 13.66583137 42.73668416     6     279    0    0    0
H 1053.82985463 13.28649553 45.67329835     6     279    0    0    0
C 1053.55731309 17.13735612 44.26944555     2     279    283    284    285
H 1055.31581783 17.75700657 45.38568962     6     282    0    0    0
H 1053.78269004 17.92467152 42.32648399     6     282    0    0    0
C 1051.00689349 17.98555943 45.40204452     2     282    286   287   288
H 1049.50708317 17.47717423 44.04529861     6     285    0    0    0
H 1050.71094775 16.98373713 47.14634480     6     285    0    0    0
C 1050.73882514 20.83676701 45.96004278     2     285   289   290   291
H 1052.33255538 21.41987258 47.17038154     6    288    0    0    0
H 1050.79461243 21.79351011 44.22724694     6    288    0    0    0
C 1048.16346981 21.54334808 47.11325582     2    288   292   293   294
H 1046.72331140 21.08225054 45.87429497     6    291    0    0    0
H 1047.72688024 20.39193226 48.79459560     6    291    0    0    0
C 1048.22283080 24.33153368 48.23393961     2    291   295   296   297
H 1046.38027998 24.70249792 49.17592528     6    294    0    0    0
H 1049.38363518 24.27543043 49.93415490     6    294    0    0    0
C 1048.99298174 26.54515668 46.53405256     2    294   298   299   300

   17   -1830.5122062019      8.03E-09 Convergence criterion met
 Total energy in the final basis set = -1828.38162883
 Total job time:  16.56s(wall), 29.59s(cpu)
        *  Thank you very much for using Q-Chem.  Have a nice day.  *

User input: 2 of 2

                  Welcome to Q-Chem
     A Quantum Leap Into The Future Of Chemistry

 Q-Chem 5.4 (devel), Q-Chem, Inc., Pleasanton, CA (2021)

 E. Epifanovsky,  A. T. B. Gilbert,  Xintian Feng,  Joonho Lee,  Yuezhi Mao,
 N. Mardirossian,  P. Pokhilko,  A. White,  M. Wormit,  M. P. Coons,
 A. L. Dempwolff,  Zhengting Gan,  D. Hait,  P. R. Horn,  L. D. Jacobson,
 I. Kaliman,  J. Kussmann,  A. W. Lange,  Ka Un Lao,  D. S. Levine,  Jie Liu,
 S. C. McKenzie,  A. F. Morrison,  K. Nanda,  F. Plasser,  D. R. Rehn,
 M. L. Vidal,  Zhi-Qiang You,  Ying Zhu,  B. Alam,  B. Albrecht,
 A. Aldossary,  E. Alguire,  J. H. Andersen,  D. Barton,  K. Begam,  A. Behn,
 Y. A. Bernard,  E. J. Berquist,  H. Burton,  A. Carreras,  K. Carter-Fenk,
 R. Chakraborty,  A. D. Chien,  K. D. Closser,  V. Cofer-Shabica,
 S. Dasgupta,  Jia Deng,  M. de Wergifosse,  M. Diedenhofen,  Hainam Do,
 S. Ehlert,  Po-Tung Fang,  S. Fatehi,  Qingguo Feng,  T. Friedhoff,
 J. Gayvert,  Qinghui Ge,  G. Gidofalvi,  M. Goldey,  J. Gomes,
 C. Gonzalez-Espinoza,  S. Gulania,  A. Gunina,  M. W. D. Hanson-Heine,
 P. H. P. Harbach,  A. W. Hauser,  M. F. Herbst,  M. Hernandez Vera,
 M. Hodecker,  Z. C. Holden,  S. Houck,  Xunkun Huang,  Kerwin Hui,
 B. C. Huynh,  M. Ivanov,  Hyunjun Ji,  Hanjie Jiang,  B. Kaduk,  S. Kaehler,
 K. Khistyaev,  Jaehoon Kim,  P. Klunzinger,  Z. Koczor-Benda,
 Joong Hoon Koh,  D. Kosenkov,  L. Koulias,  T. Kowalczyk,  C. M. Krauter,
 K. Kue,  A. Kunitsa,  T. Kus,  A. Landau,  K. V. Lawler,  D. Lefrancois,
 S. Lehtola,  Rain Li,  Yi-Pei Li,  Jiashu Liang,  M. Liebenthal,
 Hung-Hsuan Lin,  You-Sheng Lin,  Fenglai Liu,  Kuan-Yu Liu,
 M. Loipersberger,  A. Luenser,  A. Manjanath,  P. Manohar,  E. Mansoor,
 S. F. Manzer,  Shan-Ping Mao,  A. V. Marenich,  T. Markovich,  S. Mason,
 S. A. Maurer,  P. F. McLaughlin,  M. F. S. J. Menger,  J.-M. Mewes,
 S. A. Mewes,  P. Morgante,  J. W. Mullinax,  K. J. Oosterbaan,  G. Paran,
 Alexander C. Paul,  Suranjan K. Paul,  F. Pavosevic,  Zheng Pei,  S. Prager,
 E. I. Proynov,  E. Ramos,  B. Rana,  A. E. Rask,  A. Rettig,  R. M. Richard,
 F. Rob,  E. Rossomme,  T. Scheele,  M. Scheurer,  M. Schneider,
 N. Sergueev,  S. M. Sharada,  W. Skomorowski,  D. W. Small,  C. J. Stein,
 Yu-Chuan Su,  E. J. Sundstrom,  Zhen Tao,  J. Thirman,  T. Tsuchimochi,
 N. M. Tubman,  S. P. Veccham,  O. Vydrov,  J. Wenzel,  J. Witte,  A. Yamada,
 Kun Yao,  S. Yeganeh,  S. R. Yost,  A. Zech,  Igor Ying Zhang,  Xing Zhang,
 Yu Zhang,  D. Zuev,  A. Aspuru-Guzik,  A. T. Bell,  N. A. Besley,
 K. B. Bravaya,  B. R. Brooks,  D. Casanova,  Jeng-Da Chai,  S. Coriani,
 C. J. Cramer,  A. E. DePrince, III,  R. A. DiStasio Jr.,  A. Dreuw,
 B. D. Dunietz,  T. R. Furlani,  W. A. Goddard III,  S. Grimme,
 S. Hammes-Schiffer,  T. Head-Gordon,  W. J. Hehre,  Chao-Ping Hsu,
 T.-C. Jagau,  Yousung Jung,  A. Klamt,  Jing Kong,  D. S. Lambrecht,
 WanZhen Liang,  N. J. Mayhall,  C. W. McCurdy,  J. B. Neaton,
 C. Ochsenfeld,  J. A. Parkhill,  R. Peverati,  V. A. Rassolov,  Yihan Shao,
 L. V. Slipchenko,  T. Stauch,  R. P. Steele,  J. E. Subotnik,
 A. J. W. Thom,  A. Tkatchenko,  D. G. Truhlar,  T. Van Voorhis,
 T. A. Wesolowski,  K. B. Whaley,  H. L. Woodcock III,  P. M. Zimmerman,
 S. Faraji,  P. M. W. Gill,  M. Head-Gordon,  J. M. Herbert,  A. I. Krylov

 Additional authors for Version 5.4.1:
 S. Kotaru,  Shaozhi Li,  Xiangyuan Li,  F. Matz,  A. Molle,  Haisheng Ren,
 Yingli Su,  Hung-Yi Tsai,  C. Utku,  Fang Wang

 Contributors to earlier versions of Q-Chem not listed above:
 R. D. Adamson,  B. Austin,  R. Baer,  J. Baker,  G. J. O. Beran,
 K. Brandhorst,  S. T. Brown,  E. F. C. Byrd,  A. K. Chakraborty,
 G. K. L. Chan,  Chun-Min Chang,  Yunqing Chen,  C.-L. Cheng,
 Siu Hung Chien,  D. M. Chipman,  D. L. Crittenden,  H. Dachsel,
 R. J. Doerksen,  A. D. Dutoi,  R. G. Edgar,  J. Fosso-Tande,
 L. Fusti-Molnar,  D. Ghosh,  A. Ghysels,  A. Golubeva-Zadorozhnaya,
 J. Gonthier,  M. S. Gordon,  S. R. Gwaltney,  G. Hawkins,  J. E. Herr,
 A. Heyden,  S. Hirata,  E. G. Hohenstein,  G. Kedziora,  F. J. Keil,
 C. Kelley,  Jihan Kim,  R. A. King,  R. Z. Khaliullin,  P. P. Korambath,
 W. Kurlancheek,  A. Laurent,  A. M. Lee,  M. S. Lee,  S. V. Levchenko,
 Ching Yeh Lin,  D. Liotard,  E. Livshits,  R. C. Lochan,  I. Lotan,
 L. A. Martinez-Martinez,  P. E. Maslen,  N. Nair,  D. P. O'Neill,
 D. Neuhauser,  E. Neuscamman,  C. M. Oana,  R. Olivares-Amaya,  R. Olson,
 T. M. Perrine,  B. Peters,  P. A. Pieniazek,  A. Prociuk,  Y. M. Rhee,
 J. Ritchie,  M. A. Rohrdanz,  E. Rosta,  N. J. Russ,  H. F. Schaefer III,
 M. W. Schmidt,  N. E. Schultz,  S. Sharma,  N. Shenvi,  C. D. Sherrill,
 A. C. Simmonett,  A. Sodt,  T. Stein,  D. Stuck,  K. S. Thanthiriwatte,
 V. Vanovschi,  L. Vogt,  Tao Wang,  A. Warshel,  M. A. Watson,
 C. F. Williams,  Q. Wu,  X. Xu,  Jun Yang,  W. Zhang,  Yan Zhao

 Please cite Q-Chem as follows:
 Y. Shao et al., Mol. Phys. 113, 184-215 (2015)
 DOI: 10.1080/00268976.2014.952696

 Q-Chem 5.4.1 for Intel X86 EM64T Linux

 Parts of Q-Chem use Armadillo 9.900.5 (Nocturnal Misbehaviour).
 http://arma.sourceforge.net/

 Q-Chem begins on Wed Jun  1 23:30:39 2022

 Host: p09r14n13.grace.hpc.yale.internal
0

     Scratch files written to /home/tl686/scratch60/qchem_dev/scratch/qchem244022//
 Processing $rem in /home/tl686/qchem_dev/qchem/config/preferences:
 Processing $rem in /home/tl686/.qchemrc:
Applying user defined connections for MM calculations
The previous job contains 0 fragments, simply inherited here

 Checking the input file for inconsistencies... 	...done.

--------------------------------------------------------------
User input:
--------------------------------------------------------------

$molecule
READ
$end

$qm_atoms
1:11
$end

$force_field_params
NumAtomTypes 3
AtomType -1   0.0238     3.11   0.2868
AtomType -2   0.07124    3.30   0.6597
AtomType -3  -0.0760     3.09   0.1434
$end

$rem
     JOBTYPE  freq
     METHOD   bp86
     BASIS    def2-msvp
     MAX_SCF_CYCLES   800
     INPUT_BOHR TRUE
     SYM_IGNORE TRUE
     SCF_GUESS     read
     user_connect            true
     qm_mm_interface         ONIOM
     force_field             oplsaa
$end

--------------------------------------------------------------

    4   -1830.5122062020      1.02E-09 Convergence criterion met
 Total energy in the final basis set = -1828.38162883

                    Orbital Energies (a.u.)
 --------------------------------------------------------------

 Alpha MOs
 -- Occupied --
******** -29.6338 -25.5938 -25.5813 -25.5764 -18.8887 -18.8836 -18.8824
-18.8756 -18.8682 -10.0600 -10.0495 -10.0491 -10.0404 -10.0348  -3.3192
 -2.1559  -2.1316  -2.1207  -1.0824  -1.0794  -1.0419  -1.0402  -1.0299
 -0.5760  -0.5242  -0.5234  -0.5161  -0.5113  -0.4561  -0.4522  -0.4454
 -0.4393  -0.4368  -0.4313  -0.4289  -0.4229  -0.4170  -0.4086  -0.4057
 -0.4017  -0.3946  -0.3887  -0.3812  -0.2798  -0.2702  -0.2339  -0.2194

          Ground-State Mulliken Net Atomic Charges

     Atom                 Charge (a.u.)
  ----------------------------------------
      1 Fe                   -0.517726
      2 C                     0.200486
      3 C                     0.203090
      4 C                     0.245193
      5 C                     0.225342
      6 C                     0.193562
      7 O                    -0.138491
      8 O                    -0.148223
      9 O                    -0.122021
     10 O                    -0.073202
     11 O                    -0.068010
  ----------------------------------------
  Sum of atomic charges =     0.000000

                    Cartesian Multipole Moments
 -----------------------------------------------------------------
    Charge (ESU x 10^10)
                -0.0000
    Dipole Moment (Debye)
         X       0.2342617012      Y       0.5583256082      Z      -0.3785443279
       Tot       0.7140741121
    Quadrupole Moments (Debye-Ang)
        XX     184.6179     XY     304.9183     YY     -53.8145
        XZ    -198.9877     YZ      10.5479     ZZ     -91.3603
