 Q-Chem 5.4 (devel), Q-Chem, Inc., Pleasanton, CA (2021)
 Q-Chem 5.4.1 for Intel X86 EM64T Linux

User input:
--------------------------------------------------------------
$molecule
0   1
 Fe 931.12892864 -53.25692929 71.39699423    -1  0   0   0   0
C 929.47246960 -54.37105443 74.03822989    -2  0   0   0   0
C 929.97319995 -53.52697350 68.26872280    -2  0   0   0   0
C 934.53754949 -52.18375415 72.16039541    -2  0   0   0   0
C 931.92196195 -56.80849493 71.20905287    -2  0   0   0   0
C 929.88841352 -50.05659830 71.79355090    -2  0   0   0   0
O 928.53021752 -55.15067417 75.92506802    -3  0   0   0   0
O 929.41835206 -54.11532305 66.24073056    -3  0   0   0   0
O 936.48477126 -51.82717869 72.80135311    -3  0   0   0   0
O 932.26739838 -58.93149257 71.32179346    -3  0   0   0   0
O 929.10489970 -48.08205628 71.97169203    -3  0   0   0   0
H 946.42828391 -68.53270806 93.57918379      6     13    0    0    0
C 944.35357637 -69.00894192 94.15224401     1     12    14    15    16
H 944.46361897 -69.27989672 96.30130110     6     13    0    0    0
H 943.28169004 -67.15916313 94.00098423     6     13    0    0    0
C 943.27251927 -71.32716683 92.95544795     2     13    17    18    19
H 944.70122631 -72.72532817 93.06785374     6     16    0    0    0
H 941.74067056 -72.09775810 93.93597777     6     16    0    0    0
C 942.46388321 -70.55186724 90.18886673     2     16    20   21   22
H 941.14207061 -68.94258547 90.21933946     6     19    0    0    0
H 944.11172405 -69.76508224 89.17843805     6     19    0    0    0
C 941.29259835 -72.81810245 88.60544777     2     19   23   24   25
H 942.63153759 -74.31731674 88.38912079     6    22    0    0    0
H 939.86381829 -73.48802123 89.85420931     6    22    0    0    0
C 939.72843049 -72.07134782 86.34553915     2    22   26   27   28
H 938.27916952 -70.78603938 86.79455784     6    25    0    0    0
H 941.11341476 -71.33622947 84.93865128     6    25    0    0    0
C 938.61118497 -74.70014098 85.23662022     2    25   29   30   31
H 939.96405766 -75.86111386 84.33853066     6    28    0    0    0
H 937.86130608 -75.84008618 86.75767687     6    28    0    0    0
C 936.52177840 -74.25692890 83.12975676     2    28   32   33   34
H 934.72855733 -73.42379717 83.90526668     6    31    0    0    0
H 937.36662615 -72.69271744 81.98557130     6    31    0    0    0
C 935.64393020 -76.58167933 81.71357356     2    31   35   36   37
H 937.36390532 -77.59739416 80.91615648     6    34    0    0    0
H 934.75070320 -77.80810526 83.11324267     6    34    0    0    0
C 933.49781587 -76.00719081 79.85121956     2    34   38   39   40
H 931.92427314 -75.21042383 80.93145562     6    37    0    0    0
H 934.12403347 -74.36257534 78.83059405     6    37    0    0    0
C 932.99689455 -78.32041832 78.18833646     2    37   41   42   43
H 934.66418973 -79.05529333 77.21119307     6    40    0    0    0
H 932.31894694 -79.94582741 79.53216059     6    40    0    0    0
C 930.97298016 -77.78370862 76.02064677     2    40   44   45   46
H 929.15020375 -77.92472404 77.10323875     6    43    0    0    0
H 931.32713880 -75.88691394 75.12472866     6    43    0    0    0
C 931.22616279 -79.64700031 73.64340520     1    43   47   48   49
H 933.07870162 -79.67794177 72.61233030     6    46    0    0    0
H 929.91545045 -79.06292718 72.32344646     6    46    0    0    0
H 930.88637045 -81.61739163 74.21121150     6    46    0    0    0
H 927.48470615 -67.54844484 70.60755119     6     51    0    0    0
C 929.12991409 -67.65602194 71.63980086     1     50    52    53    54
H 930.48679419 -66.64230839 70.55587087     6     51    0    0    0
H 928.82904763 -66.43691369 73.20395453     6     51    0    0    0
C 929.91962598 -70.42175751 72.54278635     2     51    55    56    57
H 931.74643252 -70.54717512 73.46824390     6     54    0    0    0
H 928.53525058 -71.20177876 73.80136365     6     54    0    0    0
C 929.94658120 -72.17500609 70.30873843     2     54    58   59   60
H 930.55624113 -71.08332499 68.65545795     6     57    0    0    0
H 931.45224513 -73.60348428 70.47034671     6     57    0    0    0
C 927.31760730 -73.36172378 69.99583311     2     57   61   62   63
H 926.77579805 -74.78370930 71.47188194     6    60    0    0    0
H 925.93663319 -71.84009449 70.27844249     6    60    0    0    0
C 927.23392305 -74.38923567 67.36885612     2    60   64   65   66
H 927.71043515 -72.84607618 66.14426113     6    63    0    0    0
H 928.84391500 -75.70709804 67.07637576     6    63    0    0    0
C 924.73874966 -75.68262397 66.86323347     2    63   67   68   69
H 924.87472950 -77.08442622 65.45639722     6    66    0    0    0
H 924.10712964 -76.80277238 68.42813485     6    66    0    0    0
C 922.48749361 -73.80032054 66.42775221     2    66   70   71   72
H 921.61286422 -73.02616050 68.20451404     6    69    0    0    0
H 923.27800080 -72.03561382 65.79040959     6    69    0    0    0
C 920.49153150 -74.78435547 64.57593157     2    69   73   74   75
H 921.37038129 -74.57949734 62.71148590     6    72    0    0    0
H 920.05528562 -76.66329622 65.28467791     6    72    0    0    0
C 917.94051189 -73.37908696 64.66785609     2    72   76   77   78
H 917.24637204 -73.12553405 66.58537325     6    75    0    0    0
H 918.34212444 -71.54737739 63.84126930     6    75    0    0    0
C 915.65538295 -74.74190114 63.42340783     2    75   79   80   81
H 915.68293996 -74.75393499 61.26561920     6    78    0    0    0
H 915.79710193 -76.67260831 64.07734378     6    78    0    0    0
C 913.04332649 -73.85202922 64.52399063     2    78   82   83   84
H 912.93047679 -73.98774706 66.65877572     6    81    0    0    0
H 912.91795868 -71.86170896 64.05811537     6    81    0    0    0
C 910.70477898 -75.33328265 63.65194036     1    81   85   86   87
H 910.56776649 -75.80104260 61.53880237     6    84    0    0    0
H 909.19974165 -74.05340580 64.18046150     6    84    0    0    0
H 910.46788188 -77.09500814 64.52538181     6    84    0    0    0
H 956.98503037 -81.96949836 77.18222737     6     89    0    0    0
C 955.88929578 -83.63602320 76.62947051     1     88    90    91    92
H 954.08104886 -82.81786802 76.14724082     6     89    0    0    0
H 956.51441431 -84.72741007 75.20182211     6     89    0    0    0
C 955.50660654 -85.43884763 78.78188135     2     89    93    94    95
H 957.23629235 -86.22751019 79.37763951     6     92    0    0    0
H 954.92854607 -84.35460383 80.57627115     6     92    0    0    0
C 953.56581002 -87.54719571 78.07781443     2     92    96   97   98
H 953.56408540 -88.04599032 76.15722485     6     95    0    0    0
H 954.27806725 -89.20601690 79.01878846     6     95    0    0    0
C 950.99405703 -86.73701892 79.07993857     2     95   99   100   101
H 951.26709703 -86.08404407 80.97804396     6    98    0    0    0
H 950.01712318 -85.13288613 78.13195742     6    98    0    0    0
C 949.08043311 -88.89478639 78.82952486     2    98   102   103   104
H 948.16928743 -88.82084475 77.11362006     6    101    0    0    0
H 949.98932010 -90.64057402 79.00586005     6    101    0    0    0
C 946.69174429 -88.60001574 80.57640343     2    101   105   106   107
H 947.02712603 -89.70035435 82.20796288     6    104    0    0    0
H 946.58228635 -86.58941360 81.06380943     6    104    0    0    0
C 944.13552207 -89.93707811 79.76461692     2    104   108   109   110
H 943.63776232 -89.19868814 77.81885068     6    107    0    0    0
H 944.62238679 -91.89169220 79.58183971     6    107    0    0    0
C 942.09705049 -89.85833427 81.76583071     2    107   111   112   113
H 942.81589875 -89.46157998 83.76978784     6    110    0    0    0
H 941.09924241 -88.04952319 81.36261240     6    110    0    0    0
C 940.48905535 -92.30453237 82.02650007     2    110   114   115   116
H 941.46125557 -93.91687778 82.88317799     6    113    0    0    0
H 939.03517348 -91.61414078 83.33312187     6    113    0    0    0
C 939.11135894 -92.92711788 79.48735496     2    113   117   118   119
H 938.47700507 -91.21428224 78.44108692     6    116    0    0    0
H 940.32725616 -93.80148348 78.10071767     6    116    0    0    0
C 936.88617340 -94.80100398 79.76080966     2    116   120   121   122
H 936.70972688 -95.73941099 77.91775711     6    119    0    0    0
H 937.20988563 -96.15226993 81.30621523     6    119    0    0    0
C 934.25922034 -93.66146115 80.06526677     1    119   123   124   125
H 932.93508033 -94.93869115 79.06565789     6    122    0    0    0
H 934.16364457 -91.96283585 79.03092065     6    122    0    0    0
H 933.76802767 -93.43232261 82.08225328     6    122    0    0    0
H 956.15696536 -70.51181566 66.46110688     6     127    0    0    0
C 956.42534156 -68.50295220 66.24160811     1     126    128    129    130
H 958.11149227 -67.90095446 67.11895494     6     127    0    0    0
H 956.59504286 -67.85109696 64.25051876     6     127    0    0    0
C 954.28622010 -67.20772980 67.87316272     2     127    131    132    133
H 952.30388874 -67.86937366 67.21430761     6     130    0    0    0
H 954.50538491 -67.83778362 69.73740647     6     130    0    0    0
C 954.19985209 -64.24800091 67.81661422     2     130    134   135   136
H 955.86556638 -63.50495659 68.88043483     6     133    0    0    0
H 954.72110025 -63.76897705 65.88159908     6     133    0    0    0
C 951.94327259 -62.84757060 68.70819216     2     133   137   138   139
H 950.36473819 -63.50048783 67.67154813     6    136    0    0    0
H 951.47152779 -63.72227726 70.39982827     6    136    0    0    0
C 952.22586215 -59.96900452 68.82891911     2    136   140   141   142
H 953.35530540 -59.45324305 70.51105671     6    139    0    0    0
H 953.21385816 -59.37857158 67.06013062     6    139    0    0    0
C 949.62534304 -58.79792513 68.72386621     2    139   143   144   145
H 948.83525559 -59.32310895 66.79617326     6    142    0    0    0
H 948.48514987 -59.64387180 70.20884866     6    142    0    0    0
C 949.66712109 -55.96560528 68.97112802     2    142   146   147   148
H 950.61232516 -55.52851703 70.67276094     6    145    0    0    0
H 950.71642116 -55.28601190 67.28757929     6    145    0    0    0
C 947.13074986 -54.77920364 68.94702175     2    145   149   150   151
H 946.08008390 -55.23670147 67.20384663     6    148    0    0    0
H 945.88818354 -55.34254229 70.53787498     6    148    0    0    0
C 947.12668154 -51.89568756 68.96255910     2    148   152   153   154
H 948.73652286 -51.14538130 70.16202337     6    151    0    0    0
H 947.77871516 -51.33950194 67.09989413     6    151    0    0    0
C 944.55769466 -50.64143789 69.39542230     2    151   155   156   157
H 944.52305207 -48.76900025 68.83418809     6    154    0    0    0
H 943.26012221 -51.80738359 68.17660380     6    154    0    0    0
C 943.50760044 -50.84823990 72.21159578     2    154   158   159   160
H 941.51069351 -50.62830625 72.19082544     6    157    0    0    0
H 943.72897442 -52.80424547 72.88412360     6    157    0    0    0
C 944.74305619 -49.03790387 74.03456781     1    157   161   162   163
H 944.29021534 -49.35281688 75.91536963     6    160    0    0    0
H 944.17037866 -47.23745900 73.74336840     6    160    0    0    0
H 946.89308363 -49.03621190 73.73986529     6    160    0    0    0
H 954.14161773 -79.71093149 51.87148305     6     165    0    0    0
C 955.11034280 -78.30522142 52.91420500     1     164    166    167    168
H 954.60765931 -78.64872472 54.87693205     6     165    0    0    0
H 957.08929529 -78.66294533 52.61373374     6     165    0    0    0
C 954.65682659 -75.77185961 51.86938415     2     165    169    170    171
H 954.69536854 -75.68835681 49.69934345     6     168    0    0    0
H 952.67337640 -75.33211813 52.34520458     6     168    0    0    0
C 956.56168285 -73.78759011 52.99319401     2     168    172   173   174
H 956.60974011 -73.98041739 54.99285384     6     171    0    0    0
H 958.46771487 -74.15018779 52.49170518     6     171    0    0    0
C 955.72989394 -71.05953282 52.36275836     2     171   175   176   177
H 955.03902180 -70.98707125 50.35195008     6    174    0    0    0
H 954.17414618 -70.50203598 53.68639975     6    174    0    0    0
C 957.81846097 -69.19039936 52.91421573     2    174   178   179   180
H 958.00150955 -69.14899524 54.98037510     6    177    0    0    0
H 959.63279433 -69.93565552 52.08029369     6    177    0    0    0
C 957.31427471 -66.46132972 52.18434463     2    177   181   182   183
H 957.30995813 -66.44506307 50.03602333     6    180    0    0    0
H 955.45160677 -66.15071477 52.90736868     6    180    0    0    0
C 959.14112420 -64.40833097 53.14620959     2    180   184   185   186
H 958.85374721 -64.12104694 55.14985689     6    183    0    0    0
H 961.07964830 -65.27916359 53.15264782     6    183    0    0    0
C 958.85954826 -61.86937935 51.99505808     2    183   187   188   189
H 959.03055100 -62.03449430 49.83475636     6    186    0    0    0
H 956.92422600 -61.64981066 52.28475402     6    186    0    0    0
C 960.47531094 -59.82525275 53.13047053     2    186   190   191   192
H 960.33085139 -59.96611202 55.14276704     6    189    0    0    0
H 962.38974668 -60.24626066 52.74527279     6    189    0    0    0
C 959.60635231 -57.42331822 52.15792166     2    189   193   194   195
H 959.71674092 -57.52937082 50.08732690     6    192    0    0    0
H 957.51930566 -57.23513424 52.58508838     6    192    0    0    0
C 961.32105908 -55.14470168 52.90175126     2    192   196   197   198
H 961.74616959 -55.12308253 54.94568828     6    195    0    0    0
H 963.03028227 -55.29021189 51.63907737     6    195    0    0    0
C 960.19511473 -52.51938715 51.98851459     1    195   199   200   201
H 958.43923994 -51.97923877 52.75879122     6    198    0    0    0
H 960.04997063 -52.51481699 49.88595347     6    198    0    0    0
H 961.65852657 -51.13391148 52.52528112     6    198    0    0    0
H 938.94838893 -75.12061599 55.72673685     6     203    0    0    0
C 940.56546162 -74.64195212 54.74352631     1     202    204    205    206
H 939.97640901 -73.03180151 53.65225375     6     203    0    0    0
H 942.01519605 -74.01669060 56.13337634     6     203    0    0    0
C 941.39797458 -76.90186754 53.28895603     2     203    207    208    209
H 943.24825076 -76.81906966 52.38793287     6     206    0    0    0
H 941.46618044 -78.62613753 54.55191767     6     206    0    0    0
C 939.20949984 -77.73586714 51.29500223     2     206    210   211   212
H 939.59144889 -79.77697367 50.70734804     6     209    0    0    0
H 937.44624996 -77.68676310 52.23726118     6     209    0    0    0
C 939.49486308 -76.15566764 48.89502966     2     209   213   214   215
H 940.06655900 -74.22454802 49.40924508     6    212    0    0    0
H 940.98194589 -77.14662399 47.94416930     6    212    0    0    0
C 937.09471918 -76.05546716 47.34946477     2    212   216   217   218
H 936.34336182 -78.02253797 47.02716533     6    215    0    0    0
H 935.61915045 -74.89375223 48.09627548     6    215    0    0    0
C 937.98636605 -74.80658548 44.82796576     2    215   219   220   221
H 938.29407287 -72.85828453 45.34637741     6    218    0    0    0
H 939.70452117 -75.47631667 44.00183772     6    218    0    0    0
C 935.96311986 -74.94660645 42.81943065     2    218   222   223   224
H 935.54926919 -77.02539338 42.75405910     6    221    0    0    0
H 934.29193971 -74.09567269 43.56225262     6    221    0    0    0
C 936.36635605 -73.83175315 40.05711605     2    221   225   226   227
H 936.67428804 -71.89170993 40.46243251     6    224    0    0    0
H 938.02333826 -74.49959571 38.89935093     6    224    0    0    0
C 934.21565120 -74.25455136 38.19571725     2    224   228   229   230
H 933.81484670 -76.30355246 38.03346439     6    227    0    0    0
H 932.33774368 -73.49058100 38.84051843     6    227    0    0    0
C 934.83616991 -72.94541436 35.64894563     2    227   231   232   233
H 935.37693889 -70.92252089 35.85784377     6    230    0    0    0
H 936.68122680 -73.66349122 35.14770088     6    230    0    0    0
C 932.77994796 -73.64204880 33.68849881     2    230   234   235   236
H 933.53042234 -73.56800665 31.66395913     6    233    0    0    0
H 932.30159109 -75.59261470 33.79544845     6    233    0    0    0
C 930.55177916 -71.90696381 34.04004723     1    233   237   238   239
H 929.41758850 -71.65340917 32.33148376     6    236    0    0    0
H 930.88611743 -70.09544784 34.97357578     6    236    0    0    0
H 929.39523550 -72.76443707 35.42556426     6    236    0    0    0
H 920.67288754 -80.39890932 71.77907065     6     241    0    0    0
C 920.83779369 -81.53396519 69.97186671     1     240    242    243    244
H 919.04562737 -81.83829755 69.01763842     6     241    0    0    0
H 922.00052671 -80.47837607 68.73123728     6     241    0    0    0
C 922.11485241 -84.13482946 70.64223437     2     241    245    246    247
H 920.82665249 -85.08792815 71.97918288     6     244    0    0    0
H 922.50954886 -85.51045135 69.16869184     6     244    0    0    0
C 924.60432891 -83.64388151 72.10322286     2     244    248   249   250
H 926.21996569 -84.29767779 70.97676924     6     247    0    0    0
H 924.89400602 -81.54257149 72.27468412     6     247    0    0    0
C 924.67628762 -84.74692821 74.76543538     2     247   251   252   253
H 926.36056280 -84.11094473 75.55422028     6    250    0    0    0
H 923.17411549 -83.69797241 75.84527993     6    250    0    0    0
C 924.60387425 -87.68207605 74.90910035     2    250   254   255   256
H 923.29672246 -88.26628825 73.46544693     6    253    0    0    0
H 926.46196365 -88.50307175 74.39814061     6    253    0    0    0
C 923.64485692 -88.70657285 77.26426023     2    253   257   258   259
H 924.43351559 -87.63355692 78.90236479     6    256    0    0    0
H 921.64782718 -88.27753818 77.33541264     6    256    0    0    0
C 924.25384558 -91.54464820 77.43139691     2    256   260   261   262
H 923.91544097 -92.64598083 75.56225652     6    259    0    0    0
H 926.41419437 -91.67922800 77.62079991     6    259    0    0    0
C 923.01519642 -92.77601766 79.81915905     2    259   263   264   265
H 923.58538759 -91.83934524 81.58235747     6    262    0    0    0
H 921.01472648 -92.71786789 79.72354426     6    262    0    0    0
C 923.91486214 -95.47720046 80.38975645     2    262   266   267   268
H 923.14676224 -95.98730597 82.26603430     6    265    0    0    0
H 923.20938804 -96.78756135 78.93350170     6    265    0    0    0
C 926.71483799 -95.83902260 80.47460394     2    265   269   270   271
H 927.56869417 -94.99047765 78.88137373     6    268    0    0    0
H 927.39786056 -94.74481197 82.04833560     6    268    0    0    0
C 927.63680001 -98.60703201 81.16557011     2    268   272   273   274
H 926.99596976 -99.04945783 83.14791903     6    271    0    0    0
H 926.38358299 -99.90102555 80.11266350     6    271    0    0    0
C 930.43287390 -99.11780339 80.97102402     1    271   275   276   277
H 931.21880873 -98.72559895 78.99476154     6    274    0    0    0
H 931.04997955 -101.04681073 81.47602018     6    274    0    0    0
H 931.45736391 -97.87845957 82.13332753     6    274    0    0    0
H 941.76315584 -82.37259244 57.97511559     6     279    0    0    0
C 940.39033004 -83.80123536 58.29866792     1     278    280    281    282
H 941.28502566 -85.40844724 57.55085785     6     279    0    0    0
H 940.06295870 -84.08278467 60.34788433     6     279    0    0    0
C 937.95459300 -83.12547115 56.90624290     2     279    283    284    285
H 936.95818152 -81.54876939 57.64975954     6     282    0    0    0
H 938.45100410 -82.50947083 54.97219311     6     282    0    0    0
C 935.95514715 -85.11154686 56.45866914     2     282    286   287   288
H 936.66635238 -87.03018768 55.85652216     6     285    0    0    0
H 935.29196644 -85.66536200 58.28740342     6     285    0    0    0
C 933.77545935 -84.11154560 54.74844877     2     285   289   290   291
H 933.30737029 -82.33105366 55.63305998     6    288    0    0    0
H 934.55670716 -83.45784375 52.98878087     6    288    0    0    0
C 931.51156041 -85.76962846 54.42346977     2    288   292   293   294
H 932.00575218 -87.29028863 53.15810876     6    291    0    0    0
H 931.18918111 -86.74435175 56.34860022     6    291    0    0    0
C 929.10419367 -84.39397174 53.52283209     2    291   295   296   297
H 928.81429578 -82.56378022 54.32211389     6    294    0    0    0
H 929.13291833 -83.90391911 51.50057101     6    294    0    0    0
C 926.64993099 -86.01720369 54.09242047     2    294   298   299   300

   19   -1830.5018848678      3.42E-09 Convergence criterion met
 Total energy in the final basis set = -1828.19232244
 Total job time:  17.55s(wall), 31.47s(cpu)
        *  Thank you very much for using Q-Chem.  Have a nice day.  *

User input: 2 of 2

                  Welcome to Q-Chem
     A Quantum Leap Into The Future Of Chemistry

 Q-Chem 5.4 (devel), Q-Chem, Inc., Pleasanton, CA (2021)

 E. Epifanovsky,  A. T. B. Gilbert,  Xintian Feng,  Joonho Lee,  Yuezhi Mao,
 N. Mardirossian,  P. Pokhilko,  A. White,  M. Wormit,  M. P. Coons,
 A. L. Dempwolff,  Zhengting Gan,  D. Hait,  P. R. Horn,  L. D. Jacobson,
 I. Kaliman,  J. Kussmann,  A. W. Lange,  Ka Un Lao,  D. S. Levine,  Jie Liu,
 S. C. McKenzie,  A. F. Morrison,  K. Nanda,  F. Plasser,  D. R. Rehn,
 M. L. Vidal,  Zhi-Qiang You,  Ying Zhu,  B. Alam,  B. Albrecht,
 A. Aldossary,  E. Alguire,  J. H. Andersen,  D. Barton,  K. Begam,  A. Behn,
 Y. A. Bernard,  E. J. Berquist,  H. Burton,  A. Carreras,  K. Carter-Fenk,
 R. Chakraborty,  A. D. Chien,  K. D. Closser,  V. Cofer-Shabica,
 S. Dasgupta,  Jia Deng,  M. de Wergifosse,  M. Diedenhofen,  Hainam Do,
 S. Ehlert,  Po-Tung Fang,  S. Fatehi,  Qingguo Feng,  T. Friedhoff,
 J. Gayvert,  Qinghui Ge,  G. Gidofalvi,  M. Goldey,  J. Gomes,
 C. Gonzalez-Espinoza,  S. Gulania,  A. Gunina,  M. W. D. Hanson-Heine,
 P. H. P. Harbach,  A. W. Hauser,  M. F. Herbst,  M. Hernandez Vera,
 M. Hodecker,  Z. C. Holden,  S. Houck,  Xunkun Huang,  Kerwin Hui,
 B. C. Huynh,  M. Ivanov,  Hyunjun Ji,  Hanjie Jiang,  B. Kaduk,  S. Kaehler,
 K. Khistyaev,  Jaehoon Kim,  P. Klunzinger,  Z. Koczor-Benda,
 Joong Hoon Koh,  D. Kosenkov,  L. Koulias,  T. Kowalczyk,  C. M. Krauter,
 K. Kue,  A. Kunitsa,  T. Kus,  A. Landau,  K. V. Lawler,  D. Lefrancois,
 S. Lehtola,  Rain Li,  Yi-Pei Li,  Jiashu Liang,  M. Liebenthal,
 Hung-Hsuan Lin,  You-Sheng Lin,  Fenglai Liu,  Kuan-Yu Liu,
 M. Loipersberger,  A. Luenser,  A. Manjanath,  P. Manohar,  E. Mansoor,
 S. F. Manzer,  Shan-Ping Mao,  A. V. Marenich,  T. Markovich,  S. Mason,
 S. A. Maurer,  P. F. McLaughlin,  M. F. S. J. Menger,  J.-M. Mewes,
 S. A. Mewes,  P. Morgante,  J. W. Mullinax,  K. J. Oosterbaan,  G. Paran,
 Alexander C. Paul,  Suranjan K. Paul,  F. Pavosevic,  Zheng Pei,  S. Prager,
 E. I. Proynov,  E. Ramos,  B. Rana,  A. E. Rask,  A. Rettig,  R. M. Richard,
 F. Rob,  E. Rossomme,  T. Scheele,  M. Scheurer,  M. Schneider,
 N. Sergueev,  S. M. Sharada,  W. Skomorowski,  D. W. Small,  C. J. Stein,
 Yu-Chuan Su,  E. J. Sundstrom,  Zhen Tao,  J. Thirman,  T. Tsuchimochi,
 N. M. Tubman,  S. P. Veccham,  O. Vydrov,  J. Wenzel,  J. Witte,  A. Yamada,
 Kun Yao,  S. Yeganeh,  S. R. Yost,  A. Zech,  Igor Ying Zhang,  Xing Zhang,
 Yu Zhang,  D. Zuev,  A. Aspuru-Guzik,  A. T. Bell,  N. A. Besley,
 K. B. Bravaya,  B. R. Brooks,  D. Casanova,  Jeng-Da Chai,  S. Coriani,
 C. J. Cramer,  A. E. DePrince, III,  R. A. DiStasio Jr.,  A. Dreuw,
 B. D. Dunietz,  T. R. Furlani,  W. A. Goddard III,  S. Grimme,
 S. Hammes-Schiffer,  T. Head-Gordon,  W. J. Hehre,  Chao-Ping Hsu,
 T.-C. Jagau,  Yousung Jung,  A. Klamt,  Jing Kong,  D. S. Lambrecht,
 WanZhen Liang,  N. J. Mayhall,  C. W. McCurdy,  J. B. Neaton,
 C. Ochsenfeld,  J. A. Parkhill,  R. Peverati,  V. A. Rassolov,  Yihan Shao,
 L. V. Slipchenko,  T. Stauch,  R. P. Steele,  J. E. Subotnik,
 A. J. W. Thom,  A. Tkatchenko,  D. G. Truhlar,  T. Van Voorhis,
 T. A. Wesolowski,  K. B. Whaley,  H. L. Woodcock III,  P. M. Zimmerman,
 S. Faraji,  P. M. W. Gill,  M. Head-Gordon,  J. M. Herbert,  A. I. Krylov

 Additional authors for Version 5.4.1:
 S. Kotaru,  Shaozhi Li,  Xiangyuan Li,  F. Matz,  A. Molle,  Haisheng Ren,
 Yingli Su,  Hung-Yi Tsai,  C. Utku,  Fang Wang

 Contributors to earlier versions of Q-Chem not listed above:
 R. D. Adamson,  B. Austin,  R. Baer,  J. Baker,  G. J. O. Beran,
 K. Brandhorst,  S. T. Brown,  E. F. C. Byrd,  A. K. Chakraborty,
 G. K. L. Chan,  Chun-Min Chang,  Yunqing Chen,  C.-L. Cheng,
 Siu Hung Chien,  D. M. Chipman,  D. L. Crittenden,  H. Dachsel,
 R. J. Doerksen,  A. D. Dutoi,  R. G. Edgar,  J. Fosso-Tande,
 L. Fusti-Molnar,  D. Ghosh,  A. Ghysels,  A. Golubeva-Zadorozhnaya,
 J. Gonthier,  M. S. Gordon,  S. R. Gwaltney,  G. Hawkins,  J. E. Herr,
 A. Heyden,  S. Hirata,  E. G. Hohenstein,  G. Kedziora,  F. J. Keil,
 C. Kelley,  Jihan Kim,  R. A. King,  R. Z. Khaliullin,  P. P. Korambath,
 W. Kurlancheek,  A. Laurent,  A. M. Lee,  M. S. Lee,  S. V. Levchenko,
 Ching Yeh Lin,  D. Liotard,  E. Livshits,  R. C. Lochan,  I. Lotan,
 L. A. Martinez-Martinez,  P. E. Maslen,  N. Nair,  D. P. O'Neill,
 D. Neuhauser,  E. Neuscamman,  C. M. Oana,  R. Olivares-Amaya,  R. Olson,
 T. M. Perrine,  B. Peters,  P. A. Pieniazek,  A. Prociuk,  Y. M. Rhee,
 J. Ritchie,  M. A. Rohrdanz,  E. Rosta,  N. J. Russ,  H. F. Schaefer III,
 M. W. Schmidt,  N. E. Schultz,  S. Sharma,  N. Shenvi,  C. D. Sherrill,
 A. C. Simmonett,  A. Sodt,  T. Stein,  D. Stuck,  K. S. Thanthiriwatte,
 V. Vanovschi,  L. Vogt,  Tao Wang,  A. Warshel,  M. A. Watson,
 C. F. Williams,  Q. Wu,  X. Xu,  Jun Yang,  W. Zhang,  Yan Zhao

 Please cite Q-Chem as follows:
 Y. Shao et al., Mol. Phys. 113, 184-215 (2015)
 DOI: 10.1080/00268976.2014.952696

 Q-Chem 5.4.1 for Intel X86 EM64T Linux

 Parts of Q-Chem use Armadillo 9.900.5 (Nocturnal Misbehaviour).
 http://arma.sourceforge.net/

 Q-Chem begins on Wed Jun 22 16:38:00 2022

 Host: p09r16n03.grace.hpc.yale.internal
0

     Scratch files written to /home/tl686/scratch60/qchem_dev/scratch/qchem215427//
 Processing $rem in /home/tl686/qchem_dev/qchem/config/preferences:
 Processing $rem in /home/tl686/.qchemrc:
Applying user defined connections for MM calculations
The previous job contains 0 fragments, simply inherited here

 Checking the input file for inconsistencies... 	...done.

--------------------------------------------------------------
User input:
--------------------------------------------------------------

$molecule
READ
$end

$qm_atoms
1:11
$end

$force_field_params
NumAtomTypes 3
AtomType -1   0.0238     3.11   0.2868
AtomType -2   0.07124    3.30   0.6597
AtomType -3  -0.0760     3.09   0.1434
$end

$rem
     JOBTYPE  freq
     METHOD   bp86
     BASIS    def2-msvp
     MAX_SCF_CYCLES   800
     INPUT_BOHR TRUE
     SYM_IGNORE TRUE
     SCF_GUESS     read
     user_connect            true
     qm_mm_interface         ONIOM
     force_field             oplsaa
$end

--------------------------------------------------------------

    2   -1830.5018848694      4.49E-09 Convergence criterion met
 Total energy in the final basis set = -1828.19232244

                    Orbital Energies (a.u.)
 --------------------------------------------------------------

 Alpha MOs
 -- Occupied --
******** -29.6240 -25.5845 -25.5710 -25.5673 -18.8983 -18.8883 -18.8862
-18.8627 -18.8580 -10.0613 -10.0466 -10.0372 -10.0310 -10.0261  -3.3080
 -2.1427  -2.1208  -2.1099  -1.0941  -1.0825  -1.0787  -1.0417  -1.0192
 -0.5642  -0.5271  -0.5175  -0.5088  -0.5081  -0.4544  -0.4515  -0.4491
 -0.4448  -0.4427  -0.4385  -0.4375  -0.4229  -0.4114  -0.4079  -0.4017
 -0.3968  -0.3932  -0.3898  -0.3708  -0.2656  -0.2566  -0.2234  -0.2106

          Ground-State Mulliken Net Atomic Charges

     Atom                 Charge (a.u.)
  ----------------------------------------
      1 Fe                   -0.446363
      2 C                     0.182887
      3 C                     0.177937
      4 C                     0.185257
      5 C                     0.195113
      6 C                     0.176872
      7 O                    -0.153344
      8 O                    -0.121311
      9 O                    -0.044346
     10 O                    -0.072277
     11 O                    -0.080425
  ----------------------------------------
  Sum of atomic charges =     0.000000

                    Cartesian Multipole Moments
 -----------------------------------------------------------------
    Charge (ESU x 10^10)
                -0.0000
    Dipole Moment (Debye)
         X       0.8223456893      Y       0.2780406954      Z      -0.1080626040
       Tot       0.8747780218
    Quadrupole Moments (Debye-Ang)
        XX     742.6973     XY     113.1958     YY     -82.8182
        XZ     -21.6508     YZ      14.2647     ZZ     -80.0066
