 Q-Chem 5.4 (devel), Q-Chem, Inc., Pleasanton, CA (2021)
 Q-Chem 5.4.1 for Intel X86 EM64T Linux

User input:
--------------------------------------------------------------
$molecule
0   1
 Fe -94.23806361 -57.47361826 -55.08924736    -1  0   0   0   0
C -90.95490003 -56.59430944 -54.37083292    -2  0   0   0   0
C -97.62228568 -58.19379144 -55.77134452    -2  0   0   0   0
C -94.77549309 -54.16876140 -55.16577111    -2  0   0   0   0
C -93.09228725 -59.05675069 -57.90066394    -2  0   0   0   0
C -94.26072782 -59.11684068 -51.93466481    -2  0   0   0   0
O -88.90331529 -55.97949836 -53.99025602    -3  0   0   0   0
O -99.81108486 -58.53106841 -56.12921946    -3  0   0   0   0
O -95.18775678 -51.98242586 -55.61782866    -3  0   0   0   0
O -92.48498345 -60.39285859 -59.57257814    -3  0   0   0   0
O -94.44004316 -60.00651819 -50.01226245    -3  0   0   0   0
H -75.31480583 -44.13700799 -57.75557795      6     13    0    0    0
C -73.90884629 -44.37361662 -59.25229152     1     12    14    15    16
H -72.37606968 -43.03382347 -58.95308275     6     13    0    0    0
H -73.17903598 -46.31696624 -59.09109649     6     13    0    0    0
C -75.09962540 -44.06875638 -61.94771614     2     13    17    18    19
H -76.33613540 -42.32759778 -61.75483443     6     16    0    0    0
H -73.73952823 -43.68682925 -63.44796343     6     16    0    0    0
C -76.79304405 -46.30480534 -62.52464870     2     16    20   21   22
H -75.75615167 -48.03200036 -62.08088857     6     19    0    0    0
H -78.35758845 -46.31121192 -61.06266757     6     19    0    0    0
C -77.96754384 -46.13794662 -65.16734698     2     19   23   24   25
H -79.19189366 -44.61603939 -65.36342785     6    22    0    0    0
H -76.51095913 -45.59674114 -66.49016420     6    22    0    0    0
C -79.52164286 -48.49780389 -65.93653770     2    22   26   27   28
H -78.32246378 -50.10704036 -65.64919294     6    25    0    0    0
H -81.15033383 -48.80422796 -64.72558977     6    25    0    0    0
C -80.15851059 -48.63150967 -68.63246967     2    25   29   30   31
H -81.46529520 -47.06116416 -69.11203277     6    28    0    0    0
H -78.48777745 -48.01263348 -69.68281738     6    28    0    0    0
C -80.87843419 -51.38801040 -69.34542625     2    28   32   33   34
H -79.42889752 -52.60315412 -68.84581456     6    31    0    0    0
H -82.47085325 -51.78246587 -68.24798650     6    31    0    0    0
C -81.47952671 -51.66473830 -72.22624255     2    31   35   36   37
H -82.50674345 -49.95742597 -72.64713971     6    34    0    0    0
H -80.05359517 -51.66240890 -73.61300989     6    34    0    0    0
C -83.24264398 -53.99581911 -72.79626206     2    34   38   39   40
H -82.58287235 -55.74513592 -71.79443931     6    37    0    0    0
H -85.05685896 -53.52048720 -72.06722355     6    37    0    0    0
C -83.67049887 -54.59164965 -75.63176534     2    37   41   42   43
H -84.36978182 -52.91051140 -76.55093498     6    40    0    0    0
H -81.82981817 -54.73619108 -76.54613922     6    40    0    0    0
C -85.14095417 -57.12042934 -76.12874653     2    40   44   45   46
H -84.04451500 -58.69882220 -75.51406751     6    43    0    0    0
H -86.90228331 -57.10530456 -74.98869630     6    43    0    0    0
C -86.06819650 -57.58172269 -78.83982598     1    43   47   48   49
H -86.96184898 -55.84016296 -79.66043188     6    46    0    0    0
H -87.48184702 -59.04019194 -79.05738930     6    46    0    0    0
H -84.64970130 -57.88468426 -80.25976334     6    46    0    0    0
H -84.43545419 -57.32693489 -60.09282696     6     51    0    0    0
C -85.40841638 -58.30956614 -61.72138111     1     50    52    53    54
H -84.38552315 -60.05123123 -62.07244254     6     51    0    0    0
H -87.44226458 -58.67940439 -61.74317571     6     51    0    0    0
C -85.00055155 -56.33259293 -63.71487820     2     51    55    56    57
H -86.31239137 -54.81017203 -63.00941122     6     54    0    0    0
H -83.05948318 -55.56304513 -63.75964429     6     54    0    0    0
C -85.93712892 -57.21304553 -66.28160695     2     54    58   59   60
H -88.03039132 -57.52783671 -66.53584992     6     57    0    0    0
H -85.61012560 -55.59945884 -67.57572151     6     57    0    0    0
C -84.57993247 -59.49622464 -67.35054731     2     57   61   62   63
H -82.63609374 -59.16929684 -67.11190652     6    60    0    0    0
H -84.88073758 -60.98967834 -66.05571437     6    60    0    0    0
C -85.48666875 -60.22039370 -69.94686819     2    60   64   65   66
H -87.43926910 -61.08165667 -69.72587583     6    63    0    0    0
H -85.66610772 -58.57466764 -71.00898823     6    63    0    0    0
C -83.78711465 -62.26526130 -71.42244411     2    63   67   68   69
H -84.23682898 -62.53846101 -73.39185418     6    66    0    0    0
H -82.04490071 -61.05188611 -71.90270648     6    66    0    0    0
C -83.66543146 -64.74622861 -70.04335337     2    66   70   71   72
H -83.02771315 -64.48879336 -68.08597382     6    69    0    0    0
H -85.52398018 -65.56446846 -69.99763762     6    69    0    0    0
C -81.77064209 -66.54456760 -71.27863282     2    69   73   74   75
H -82.19023555 -66.67364882 -73.37093147     6    72    0    0    0
H -79.81696894 -65.78866062 -71.12193508     6    72    0    0    0
C -82.21036868 -69.14513873 -70.10542174     2    72   76   77   78
H -81.58358391 -69.01009765 -68.13727141     6    75    0    0    0
H -84.22801409 -69.56351543 -70.05320421     6    75    0    0    0
C -80.68822511 -71.20487340 -71.43090238     2    75   79   80   81
H -81.74675945 -71.89583767 -73.01207250     6    78    0    0    0
H -79.06456857 -70.43253681 -72.41731141     6    78    0    0    0
C -79.60093737 -73.17838495 -69.65923086     2    78   82   83   84
H -78.66433938 -72.26808248 -67.97804669     6    81    0    0    0
H -81.09111396 -74.41969450 -68.73252280     6    81    0    0    0
C -77.71510773 -74.90773899 -71.02358868     1    81   85   86   87
H -77.00743670 -76.41780040 -69.77941111     6    84    0    0    0
H -76.15668524 -73.94420758 -71.91903100     6    84    0    0    0
H -78.67535301 -75.84801399 -72.34764408     6    84    0    0    0
H -82.68334448 -33.94175920 -78.45706382     6     89    0    0    0
C -82.01450809 -35.16706443 -80.04053657     1     88    90    91    92
H -80.13712074 -34.52847342 -80.67263373     6     89    0    0    0
H -81.80902935 -36.98545181 -79.22512670     6     89    0    0    0
C -83.93562865 -35.34333541 -82.16478616     2     89    93    94    95
H -85.38793569 -36.62555946 -81.35739394     6     92    0    0    0
H -84.66361080 -33.53417494 -82.78271627     6     92    0    0    0
C -82.50602770 -36.47097252 -84.59842356     2     92    96   97   98
H -83.66165169 -36.50389050 -86.29970409     6     95    0    0    0
H -80.62203926 -35.57044644 -85.06220494     6     95    0    0    0
C -81.52991890 -39.31850518 -84.22620926     2     95   99   100   101
H -80.22163782 -39.26138570 -82.73935338     6    98    0    0    0
H -82.87262200 -40.45293329 -83.37283370     6    98    0    0    0
C -80.59703753 -40.85745239 -86.64557234     2    98   102   103   104
H -81.79489875 -40.45145019 -88.22911550     6    101    0    0    0
H -78.74923020 -40.16109909 -87.02018160     6    101    0    0    0
C -80.45235097 -43.65497190 -86.06438175     2    101   105   106   107
H -79.49383226 -43.93105884 -84.21860355     6    104    0    0    0
H -82.34755132 -44.53793759 -85.81471233     6    104    0    0    0
C -79.07775509 -45.28270886 -88.00954042     2    104   108   109   110
H -80.02786986 -45.26957107 -89.80684184     6    107    0    0    0
H -77.32738608 -44.41036027 -88.53295013     6    107    0    0    0
C -78.03221760 -47.97866188 -87.10289247     2    107   111   112   113
H -77.03833509 -47.73399083 -85.33086197     6    110    0    0    0
H -79.84586967 -49.05501677 -86.76765380     6    110    0    0    0
C -76.55472847 -49.38579427 -89.05145622     2    110   114   115   116
H -77.81575386 -50.36322487 -90.49007715     6    113    0    0    0
H -75.67338060 -47.98672546 -90.24202434     6    113    0    0    0
C -74.59947944 -51.23896108 -88.18791009     2    113   117   118   119
H -73.17411169 -49.94579367 -87.61368571     6    116    0    0    0
H -75.39216916 -52.29961344 -86.59086460     6    116    0    0    0
C -73.47266229 -52.87456319 -90.28524141     2    116   120   121   122
H -74.78251434 -54.07135980 -91.22617428     6    119    0    0    0
H -72.71773902 -51.66645019 -91.69322438     6    119    0    0    0
C -71.43982228 -54.60501880 -89.36407790     1    119   123   124   125
H -70.51423264 -55.51815335 -90.98746739     6    122    0    0    0
H -72.12377310 -56.04496963 -88.04260115     6    122    0    0    0
H -69.92560134 -53.28876886 -88.81003575     6    122    0    0    0
H -105.80184216 -42.70401240 -81.71693503     6     127    0    0    0
C -106.13036735 -43.15808252 -79.78190962     1     126    128    129    130
H -108.25734710 -43.45024951 -79.78451627     6     127    0    0    0
H -105.33857727 -45.02140140 -79.50216067     6     127    0    0    0
C -104.98616477 -41.24863728 -77.92861014     2     127    131    132    133
H -102.95108192 -41.60693822 -77.89827961     6     130    0    0    0
H -105.12295298 -39.29954335 -78.50235389     6     130    0    0    0
C -106.32291778 -41.69750477 -75.43210383     2     130    134   135   136
H -108.06757683 -40.86590654 -75.45964820     6     133    0    0    0
H -106.63092502 -43.77630597 -75.38033690     6     133    0    0    0
C -104.82208891 -40.68248713 -73.14350073     2     133   137   138   139
H -102.95245196 -41.45607210 -73.29048351     6    136    0    0    0
H -104.53225618 -38.59582906 -73.29099244     6    136    0    0    0
C -106.13181957 -41.63864507 -70.62639577     2    136   140   141   142
H -107.97281343 -40.66074258 -70.41819961     6    139    0    0    0
H -106.48347940 -43.61067264 -71.02942879     6    139    0    0    0
C -104.40412787 -41.14646123 -68.43446358     2    139   143   144   145
H -102.67813526 -42.13981104 -68.67289811     6    142    0    0    0
H -104.09476861 -39.10732193 -68.13353797     6    142    0    0    0
C -105.69411161 -42.12374168 -66.10966510     2    142   146   147   148
H -107.51688656 -41.29041072 -65.59310908     6    145    0    0    0
H -106.09397806 -44.14898834 -66.37318879     6    145    0    0    0
C -104.04815963 -41.68280739 -63.73591873     2    145   149   150   151
H -102.25836830 -42.58973682 -63.93856972     6    148    0    0    0
H -103.55948667 -39.69356154 -63.41635907     6    148    0    0    0
C -105.79392911 -42.45306799 -61.45626313     2    148   152   153   154
H -107.37825050 -41.15543807 -61.28106536     6    151    0    0    0
H -106.60770079 -44.32102124 -61.93154410     6    151    0    0    0
C -104.50941530 -43.04419478 -58.86273219     2    151   155   156   157
H -105.94667694 -44.16286165 -57.69236601     6    154    0    0    0
H -102.93024231 -44.40104581 -58.87433897     6    154    0    0    0
C -103.76381973 -40.69474167 -57.14405967     2    154   158   159   160
H -102.95508810 -39.14785680 -58.28490789     6    157    0    0    0
H -105.58630011 -39.75842873 -56.55960614     6    157    0    0    0
C -102.07055368 -41.34376276 -54.76419073     1    157   161   162   163
H -102.93308128 -42.75183096 -53.50188568     6    160    0    0    0
H -102.10109924 -39.74789860 -53.46309346     6    160    0    0    0
H -100.15270192 -41.84587489 -55.10074450     6    160    0    0    0
H -107.99976763 -63.97554452 -87.88556261     6     165    0    0    0
C -109.53804574 -63.07688161 -86.87186512     1     164    166    167    168
H -111.11997140 -63.71770339 -87.96895463     6     165    0    0    0
H -109.22233616 -63.98066496 -85.01739458     6     165    0    0    0
C -109.46189484 -60.21764243 -86.79967476     2     165    169    170    171
H -107.68717350 -59.57340413 -86.08200918     6     168    0    0    0
H -109.39083978 -59.70787752 -88.84187926     6     168    0    0    0
C -111.84381943 -58.79093638 -85.73079137     2     168    172   173   174
H -113.22606985 -59.41323461 -87.19375048     6     171    0    0    0
H -112.45581955 -59.36234283 -83.85481756     6     171    0    0    0
C -111.39169803 -55.96988954 -85.85582841     2     171   175   176   177
H -109.60874921 -55.49266521 -84.87430647     6    174    0    0    0
H -111.41322133 -55.39502132 -87.85800345     6    174    0    0    0
C -113.48239427 -54.32438392 -84.68200547     2    174   178   179   180
H -115.34453007 -54.88689466 -85.46472169     6    177    0    0    0
H -113.53730734 -54.82353213 -82.67607936     6    177    0    0    0
C -113.18229976 -51.53447064 -85.03348885     2    177   181   182   183
H -111.52953442 -50.92310945 -83.97261813     6    180    0    0    0
H -112.97055398 -50.95689573 -87.06201784     6    180    0    0    0
C -115.21390144 -49.97294148 -84.07821742     2    180   184   185   186
H -116.85573223 -49.82842310 -85.23529234     6    183    0    0    0
H -115.48288231 -50.37344595 -82.08085689     6    183    0    0    0
C -114.24853402 -47.19589239 -83.79346767     2    183   187   188   189
H -112.36893970 -47.01424486 -82.71668347     6    186    0    0    0
H -113.63681142 -46.46991244 -85.70542135     6    186    0    0    0
C -116.28712381 -45.46212394 -82.53865652     2    186   190   191   192
H -117.88285928 -45.21804417 -83.78780131     6    189    0    0    0
H -116.86216827 -46.16166256 -80.63140720     6    189    0    0    0
C -115.54158676 -42.64743730 -82.37978357     2    189   193   194   195
H -113.85186115 -42.47778941 -81.35449719     6    192    0    0    0
H -115.08221469 -42.12072385 -84.18262197     6    192    0    0    0
C -117.81430217 -41.14544938 -81.25008067     2    192   196   197   198
H -119.30327097 -40.68092694 -82.60666751     6    195    0    0    0
H -118.78045968 -42.21069766 -79.78390133     6    195    0    0    0
C -116.66698403 -38.88609307 -80.22901011     1    195   199   200   201
H -117.64776419 -38.06050535 -78.67242097     6    198    0    0    0
H -116.41632286 -37.47283259 -81.61974952     6    198    0    0    0
H -114.66973651 -39.07492955 -79.65806583     6    198    0    0    0
H -101.10322253 -66.85647236 -83.11398275     6     203    0    0    0
C -102.57178640 -67.70190431 -81.92760551     1     202    204    205    206
H -103.28133708 -69.26197266 -82.98287019     6     203    0    0    0
H -101.36592808 -68.40641010 -80.46521628     6     203    0    0    0
C -104.83410668 -66.12161460 -81.11775207     2     203    207    208    209
H -104.67906660 -65.26337011 -79.34048982     6     206    0    0    0
H -105.00472337 -64.51702303 -82.41023516     6     206    0    0    0
C -107.47087028 -67.41970692 -81.17809558     2     206    210   211   212
H -109.12037504 -65.98792389 -81.13091955     6     209    0    0    0
H -107.74037314 -68.40169924 -83.00541365     6     209    0    0    0
C -107.66511880 -69.10238257 -78.68193289     2     209   213   214   215
H -105.92898666 -70.07569000 -78.19380862     6    212    0    0    0
H -108.25934248 -67.98819865 -77.09700308     6    212    0    0    0
C -109.55822585 -71.16050005 -78.84911715     2    212   216   217   218
H -111.40803358 -70.25046685 -79.03522472     6    215    0    0    0
H -109.39778144 -72.01766928 -80.64546741     6    215    0    0    0
C -109.31932114 -72.96109676 -76.64870710     2    215   219   220   221
H -107.40306170 -73.56294960 -76.50567394     6    218    0    0    0
H -109.88264090 -71.69202782 -75.16254478     6    218    0    0    0
C -111.24351906 -75.13402526 -76.91393851     2    218   222   223   224
H -113.10965649 -74.22601117 -76.86833097     6    221    0    0    0
H -111.19340823 -76.06234843 -78.73876909     6    221    0    0    0
C -110.68342689 -76.95405632 -74.76581616     2    221   225   226   227
H -108.76090440 -77.79856953 -74.91226614     6    224    0    0    0
H -110.41589462 -75.83316597 -73.05083305     6    224    0    0    0
C -112.52039363 -79.21719436 -74.52438835     2    224   228   229   230
H -114.29558120 -78.71220231 -73.63018927     6    227    0    0    0
H -112.94109793 -79.95744228 -76.30653237     6    227    0    0    0
C -111.25685965 -81.47436708 -73.16576166     2    227   231   232   233
H -109.64344271 -82.07704650 -74.21622406     6    230    0    0    0
H -110.26630919 -80.90034153 -71.45025772     6    230    0    0    0
C -113.04944543 -83.79102476 -72.62312388     2    230   234   235   236
H -114.83260132 -83.05110238 -71.91584205     6    233    0    0    0
H -113.61118479 -84.68347136 -74.31186109     6    233    0    0    0
C -111.74334277 -85.75383725 -70.96132851     1    233   237   238   239
H -112.98864828 -87.42609700 -70.69822171     6    236    0    0    0
H -111.55070948 -85.05785346 -69.04788602     6    236    0    0    0
H -109.97344022 -86.12966119 -71.92740452     6    236    0    0    0
H -81.34555047 -68.97892619 -79.65748289     6     241    0    0    0
C -79.58463908 -68.57989717 -78.68487694     1     240    242    243    244
H -78.38444902 -67.29725695 -79.76841638     6     241    0    0    0
H -80.28228018 -67.26862337 -77.15717588     6     241    0    0    0
C -78.05610708 -70.96497132 -77.74900324     2     241    245    246    247
H -76.72390077 -70.18514942 -76.37172529     6     244    0    0    0
H -79.27998382 -72.22519401 -76.61057783     6     244    0    0    0
C -76.66213168 -72.30687345 -79.89722562     2     244    248   249   250
H -77.96480256 -72.74981437 -81.33746266     6     247    0    0    0
H -75.19908748 -71.13121342 -80.58380314     6     247    0    0    0
C -75.48635530 -74.81071490 -79.07642087     2     247   251   252   253
H -76.85757288 -75.96213150 -78.00523379     6    250    0    0    0
H -75.34105755 -75.85436751 -80.74370444     6    250    0    0    0
C -72.89584975 -74.54166329 -77.84779502     2    250   254   255   256
H -71.72984598 -73.52231676 -79.36828816     6    253    0    0    0
H -72.97133830 -73.40845455 -76.22268693     6    253    0    0    0
C -71.25925582 -77.08334508 -77.47069536     2    253   257   258   259
H -72.42561312 -78.31139465 -76.50181427     6    256    0    0    0
H -71.28715691 -78.01604878 -79.33674777     6    256    0    0    0
C -68.67257772 -76.92910570 -76.34014320     2    256   260   261   262
H -67.38731149 -75.94064585 -77.56103380     6    259    0    0    0
H -68.80868152 -75.64621168 -74.77076701     6    259    0    0    0
C -67.58175033 -79.43898969 -75.73115531     2    259   263   264   265
H -68.45790882 -80.17050082 -74.04783742     6    262    0    0    0
H -68.05720366 -81.01216077 -77.16024122     6    262    0    0    0
C -64.69336556 -79.48094453 -75.24862091     2    262   266   267   268
H -63.65205341 -78.20275037 -76.24584360     6    265    0    0    0
H -64.41127165 -78.89338452 -73.30039246     6    265    0    0    0
C -63.46407193 -82.08711395 -75.48390880     2    265   269   270   271
H -64.79408092 -83.53059147 -74.80373146     6    268    0    0    0
H -63.26356367 -82.38446383 -77.60799757     6    268    0    0    0
C -60.99526370 -82.15735260 -74.07803135     2    268   272   273   274
H -59.60827894 -80.77260955 -74.71876730     6    271    0    0    0
H -61.34619475 -81.91732647 -72.06281268     6    271    0    0    0
C -59.92548444 -84.83064891 -74.26335411     1    271   275   276   277
H -61.15838096 -86.22330367 -73.55375733     6    274    0    0    0
H -58.08021684 -84.87014060 -73.31165921     6    274    0    0    0
H -59.69165473 -85.36624008 -76.26099768     6    274    0    0    0
H -97.54716691 -58.66918397 -87.05188336     6     279    0    0    0
C -97.59116130 -60.67077547 -87.19216016     1     278    280    281    282
H -99.57012300 -61.25039448 -87.52699015     6     279    0    0    0
H -96.48979308 -61.26502346 -88.83417604     6     279    0    0    0
C -96.15698476 -61.73135110 -84.99451717     2     279    283    284    285
H -94.26400945 -60.93675598 -84.78687815     6     282    0    0    0
H -97.28609847 -61.15350070 -83.35341263     6     282    0    0    0
C -95.77083215 -64.62043802 -85.15237036     2     282    286   287   288
H -97.43195784 -65.73811577 -85.07830627     6     285    0    0    0
H -94.85984491 -65.11237954 -87.01405605     6     285    0    0    0
C -93.89015328 -65.53839350 -82.99776450     2     285   289   290   291
H -92.07525393 -64.53917540 -82.82473117     6    288    0    0    0
H -94.74752740 -65.35536015 -81.12306408     6    288    0    0    0
C -93.10725756 -68.28256952 -83.23441057     2    288   292   293   294
H -93.65171310 -68.75547591 -85.14430083     6    291    0    0    0
H -91.03373295 -68.42447811 -82.96014253     6    291    0    0    0
C -94.28291840 -70.11382897 -81.36553298     2    291   295   296   297
H -94.05854781 -69.29271734 -79.52996966     6    294    0    0    0
H -96.29140000 -70.04289724 -81.80326967     6    294    0    0    0
C -93.23674760 -72.78920372 -81.73449405     2    294   298   299   300

   17   -1830.5142232250      8.06E-09 Convergence criterion met
 Total energy in the final basis set = -1828.31218765
 Total job time:  15.18s(wall), 27.13s(cpu)
        *  Thank you very much for using Q-Chem.  Have a nice day.  *

User input: 2 of 2

                  Welcome to Q-Chem
     A Quantum Leap Into The Future Of Chemistry

 Q-Chem 5.4 (devel), Q-Chem, Inc., Pleasanton, CA (2021)

 E. Epifanovsky,  A. T. B. Gilbert,  Xintian Feng,  Joonho Lee,  Yuezhi Mao,
 N. Mardirossian,  P. Pokhilko,  A. White,  M. Wormit,  M. P. Coons,
 A. L. Dempwolff,  Zhengting Gan,  D. Hait,  P. R. Horn,  L. D. Jacobson,
 I. Kaliman,  J. Kussmann,  A. W. Lange,  Ka Un Lao,  D. S. Levine,  Jie Liu,
 S. C. McKenzie,  A. F. Morrison,  K. Nanda,  F. Plasser,  D. R. Rehn,
 M. L. Vidal,  Zhi-Qiang You,  Ying Zhu,  B. Alam,  B. Albrecht,
 A. Aldossary,  E. Alguire,  J. H. Andersen,  D. Barton,  K. Begam,  A. Behn,
 Y. A. Bernard,  E. J. Berquist,  H. Burton,  A. Carreras,  K. Carter-Fenk,
 R. Chakraborty,  A. D. Chien,  K. D. Closser,  V. Cofer-Shabica,
 S. Dasgupta,  Jia Deng,  M. de Wergifosse,  M. Diedenhofen,  Hainam Do,
 S. Ehlert,  Po-Tung Fang,  S. Fatehi,  Qingguo Feng,  T. Friedhoff,
 J. Gayvert,  Qinghui Ge,  G. Gidofalvi,  M. Goldey,  J. Gomes,
 C. Gonzalez-Espinoza,  S. Gulania,  A. Gunina,  M. W. D. Hanson-Heine,
 P. H. P. Harbach,  A. W. Hauser,  M. F. Herbst,  M. Hernandez Vera,
 M. Hodecker,  Z. C. Holden,  S. Houck,  Xunkun Huang,  Kerwin Hui,
 B. C. Huynh,  M. Ivanov,  Hyunjun Ji,  Hanjie Jiang,  B. Kaduk,  S. Kaehler,
 K. Khistyaev,  Jaehoon Kim,  P. Klunzinger,  Z. Koczor-Benda,
 Joong Hoon Koh,  D. Kosenkov,  L. Koulias,  T. Kowalczyk,  C. M. Krauter,
 K. Kue,  A. Kunitsa,  T. Kus,  A. Landau,  K. V. Lawler,  D. Lefrancois,
 S. Lehtola,  Rain Li,  Yi-Pei Li,  Jiashu Liang,  M. Liebenthal,
 Hung-Hsuan Lin,  You-Sheng Lin,  Fenglai Liu,  Kuan-Yu Liu,
 M. Loipersberger,  A. Luenser,  A. Manjanath,  P. Manohar,  E. Mansoor,
 S. F. Manzer,  Shan-Ping Mao,  A. V. Marenich,  T. Markovich,  S. Mason,
 S. A. Maurer,  P. F. McLaughlin,  M. F. S. J. Menger,  J.-M. Mewes,
 S. A. Mewes,  P. Morgante,  J. W. Mullinax,  K. J. Oosterbaan,  G. Paran,
 Alexander C. Paul,  Suranjan K. Paul,  F. Pavosevic,  Zheng Pei,  S. Prager,
 E. I. Proynov,  E. Ramos,  B. Rana,  A. E. Rask,  A. Rettig,  R. M. Richard,
 F. Rob,  E. Rossomme,  T. Scheele,  M. Scheurer,  M. Schneider,
 N. Sergueev,  S. M. Sharada,  W. Skomorowski,  D. W. Small,  C. J. Stein,
 Yu-Chuan Su,  E. J. Sundstrom,  Zhen Tao,  J. Thirman,  T. Tsuchimochi,
 N. M. Tubman,  S. P. Veccham,  O. Vydrov,  J. Wenzel,  J. Witte,  A. Yamada,
 Kun Yao,  S. Yeganeh,  S. R. Yost,  A. Zech,  Igor Ying Zhang,  Xing Zhang,
 Yu Zhang,  D. Zuev,  A. Aspuru-Guzik,  A. T. Bell,  N. A. Besley,
 K. B. Bravaya,  B. R. Brooks,  D. Casanova,  Jeng-Da Chai,  S. Coriani,
 C. J. Cramer,  A. E. DePrince, III,  R. A. DiStasio Jr.,  A. Dreuw,
 B. D. Dunietz,  T. R. Furlani,  W. A. Goddard III,  S. Grimme,
 S. Hammes-Schiffer,  T. Head-Gordon,  W. J. Hehre,  Chao-Ping Hsu,
 T.-C. Jagau,  Yousung Jung,  A. Klamt,  Jing Kong,  D. S. Lambrecht,
 WanZhen Liang,  N. J. Mayhall,  C. W. McCurdy,  J. B. Neaton,
 C. Ochsenfeld,  J. A. Parkhill,  R. Peverati,  V. A. Rassolov,  Yihan Shao,
 L. V. Slipchenko,  T. Stauch,  R. P. Steele,  J. E. Subotnik,
 A. J. W. Thom,  A. Tkatchenko,  D. G. Truhlar,  T. Van Voorhis,
 T. A. Wesolowski,  K. B. Whaley,  H. L. Woodcock III,  P. M. Zimmerman,
 S. Faraji,  P. M. W. Gill,  M. Head-Gordon,  J. M. Herbert,  A. I. Krylov

 Additional authors for Version 5.4.1:
 S. Kotaru,  Shaozhi Li,  Xiangyuan Li,  F. Matz,  A. Molle,  Haisheng Ren,
 Yingli Su,  Hung-Yi Tsai,  C. Utku,  Fang Wang

 Contributors to earlier versions of Q-Chem not listed above:
 R. D. Adamson,  B. Austin,  R. Baer,  J. Baker,  G. J. O. Beran,
 K. Brandhorst,  S. T. Brown,  E. F. C. Byrd,  A. K. Chakraborty,
 G. K. L. Chan,  Chun-Min Chang,  Yunqing Chen,  C.-L. Cheng,
 Siu Hung Chien,  D. M. Chipman,  D. L. Crittenden,  H. Dachsel,
 R. J. Doerksen,  A. D. Dutoi,  R. G. Edgar,  J. Fosso-Tande,
 L. Fusti-Molnar,  D. Ghosh,  A. Ghysels,  A. Golubeva-Zadorozhnaya,
 J. Gonthier,  M. S. Gordon,  S. R. Gwaltney,  G. Hawkins,  J. E. Herr,
 A. Heyden,  S. Hirata,  E. G. Hohenstein,  G. Kedziora,  F. J. Keil,
 C. Kelley,  Jihan Kim,  R. A. King,  R. Z. Khaliullin,  P. P. Korambath,
 W. Kurlancheek,  A. Laurent,  A. M. Lee,  M. S. Lee,  S. V. Levchenko,
 Ching Yeh Lin,  D. Liotard,  E. Livshits,  R. C. Lochan,  I. Lotan,
 L. A. Martinez-Martinez,  P. E. Maslen,  N. Nair,  D. P. O'Neill,
 D. Neuhauser,  E. Neuscamman,  C. M. Oana,  R. Olivares-Amaya,  R. Olson,
 T. M. Perrine,  B. Peters,  P. A. Pieniazek,  A. Prociuk,  Y. M. Rhee,
 J. Ritchie,  M. A. Rohrdanz,  E. Rosta,  N. J. Russ,  H. F. Schaefer III,
 M. W. Schmidt,  N. E. Schultz,  S. Sharma,  N. Shenvi,  C. D. Sherrill,
 A. C. Simmonett,  A. Sodt,  T. Stein,  D. Stuck,  K. S. Thanthiriwatte,
 V. Vanovschi,  L. Vogt,  Tao Wang,  A. Warshel,  M. A. Watson,
 C. F. Williams,  Q. Wu,  X. Xu,  Jun Yang,  W. Zhang,  Yan Zhao

 Please cite Q-Chem as follows:
 Y. Shao et al., Mol. Phys. 113, 184-215 (2015)
 DOI: 10.1080/00268976.2014.952696

 Q-Chem 5.4.1 for Intel X86 EM64T Linux

 Parts of Q-Chem use Armadillo 9.900.5 (Nocturnal Misbehaviour).
 http://arma.sourceforge.net/

 Q-Chem begins on Wed Jun 22 08:05:40 2022

 Host: p09r16n04.grace.hpc.yale.internal
0

     Scratch files written to /home/tl686/scratch60/qchem_dev/scratch/qchem69233//
 Processing $rem in /home/tl686/qchem_dev/qchem/config/preferences:
 Processing $rem in /home/tl686/.qchemrc:
Applying user defined connections for MM calculations
The previous job contains 0 fragments, simply inherited here

 Checking the input file for inconsistencies... 	...done.

--------------------------------------------------------------
User input:
--------------------------------------------------------------

$molecule
READ
$end

$qm_atoms
1:11
$end

$force_field_params
NumAtomTypes 3
AtomType -1   0.0238     3.11   0.2868
AtomType -2   0.07124    3.30   0.6597
AtomType -3  -0.0760     3.09   0.1434
$end

$rem
     JOBTYPE  freq
     METHOD   bp86
     BASIS    def2-msvp
     MAX_SCF_CYCLES   800
     INPUT_BOHR TRUE
     SYM_IGNORE TRUE
     SCF_GUESS     read
     user_connect            true
     qm_mm_interface         ONIOM
     force_field             oplsaa
$end

--------------------------------------------------------------

    4   -1830.5142232250      1.00E-09 Convergence criterion met
 Total energy in the final basis set = -1828.31218765

                    Orbital Energies (a.u.)
 --------------------------------------------------------------

 Alpha MOs
 -- Occupied --
******** -29.6341 -25.5946 -25.5797 -25.5787 -18.8965 -18.8892 -18.8855
-18.8714 -18.8645 -10.0648 -10.0559 -10.0455 -10.0396 -10.0389  -3.3172
 -2.1525  -2.1258  -2.1225  -1.0819  -1.0759  -1.0438  -1.0367  -1.0180
 -0.5716  -0.5275  -0.5220  -0.5145  -0.5122  -0.4581  -0.4504  -0.4460
 -0.4396  -0.4370  -0.4238  -0.4216  -0.4154  -0.4118  -0.4089  -0.3989
 -0.3980  -0.3964  -0.3907  -0.3753  -0.2718  -0.2696  -0.2288  -0.2193

          Ground-State Mulliken Net Atomic Charges

     Atom                 Charge (a.u.)
  ----------------------------------------
      1 Fe                   -0.472943
      2 C                     0.194953
      3 C                     0.216643
      4 C                     0.210652
      5 C                     0.214507
      6 C                     0.203409
      7 O                    -0.089371
      8 O                    -0.127368
      9 O                    -0.154194
     10 O                    -0.129017
     11 O                    -0.067271
  ----------------------------------------
  Sum of atomic charges =     0.000000

                    Cartesian Multipole Moments
 -----------------------------------------------------------------
    Charge (ESU x 10^10)
                -0.0000
    Dipole Moment (Debye)
         X       0.5350264125      Y      -0.4094138960      Z       0.7720421515
       Tot       1.0246570567
    Quadrupole Moments (Debye-Ang)
        XX    -122.1112     XY       4.9013     YY     -46.3555
        XZ     -53.6850     YZ     -12.0108     ZZ    -113.9277

 Frequency:      -204.55                -198.80                  69.47
 Force Cnst:      0.3876                 0.3673                 0.0438
 Red. Mass:      15.7207                15.7720                15.4138
 IR Intens:        0.000                  0.000                  0.000
 Frequency:        73.44                 118.34                 130.83
 Force Cnst:      0.0500                 0.1361                 0.1551
 Red. Mass:      15.7314                16.4935                15.3832
 IR Intens:        0.000                  0.000                  0.000
 Frequency:       151.13                 267.61                 283.39
 Force Cnst:      0.2211                 0.5702                 0.6230
 Red. Mass:      16.4269                13.5135                13.1665
 IR Intens:        0.000                  0.000                  0.000
 Frequency:       379.18                 393.76                 402.87
 Force Cnst:      1.2486                 1.3539                 1.2435
 Red. Mass:      14.7390                14.8211                13.0034
 IR Intens:        0.000                  0.000                  0.000
 Frequency:       440.13                 447.49                 467.52
 Force Cnst:      1.6478                 1.6838                 1.8488
 Red. Mass:      14.4375                14.2715                14.3562
 IR Intens:        0.000                  0.000                  0.000
 Frequency:       488.23                 509.33                 533.94
 Force Cnst:      2.0695                 2.1375                 2.2060
 Red. Mass:      14.7358                13.9852                13.1331
 IR Intens:        0.000                  0.000                  0.000
 Frequency:       570.38                 608.11                 659.29
 Force Cnst:      2.5332                 3.2316                 3.8735
 Red. Mass:      13.2158                14.8322                15.1252
 IR Intens:        0.000                  0.000                  0.000
 Frequency:       663.17                1789.45                1856.12
 Force Cnst:      4.3866                25.0378                27.1152
 Red. Mass:      16.9289                13.2710                13.3582
 IR Intens:        0.000                  0.000                  0.000
 Frequency:      1943.00                2119.32                2306.86
 Force Cnst:     29.6314                35.3350                41.9894
 Red. Mass:      13.3216                13.3525                13.3920
 IR Intens:        0.000                  0.000                  0.000

 STANDARD THERMODYNAMIC QUANTITIES AT   298.15 K  AND     1.00 ATM

   This Molecule has  2 Imaginary Frequencies
   Zero point vibrational energy:       25.264 kcal/mol

   Atom    1 Element Fe Has Mass   55.93490
   Atom    2 Element C  Has Mass   12.00000
   Atom    3 Element C  Has Mass   12.00000
   Atom    4 Element C  Has Mass   12.00000
   Atom    5 Element C  Has Mass   12.00000
   Atom    6 Element C  Has Mass   12.00000
   Atom    7 Element O  Has Mass   15.99491
   Atom    8 Element O  Has Mass   15.99491
   Atom    9 Element O  Has Mass   15.99491
   Atom   10 Element O  Has Mass   15.99491
   Atom   11 Element O  Has Mass   15.99491
   Molecular Mass:   195.909450 amu
   Principal axes and moments of inertia in amu*Bohr^2:
                             1           2           3
    Eigenvalues --     1949.08442  2292.09914  2330.14726
          X               0.95260    -0.07847    -0.29394
          Y               0.23137    -0.44054     0.86741
          Z               0.19756     0.89430     0.40150
   Rotational Symmetry Number is   1
   The Molecule is an Asymmetric Top
   Translational Enthalpy:        0.889 kcal/mol
   Rotational Enthalpy:           0.889 kcal/mol
   Vibrational Enthalpy:         29.963 kcal/mol
   gas constant (RT):             0.592 kcal/mol
   Translational Entropy:        41.722  cal/mol.K
   Rotational Entropy:           30.721  cal/mol.K
   Vibrational Entropy:          28.987  cal/mol.K

   Total Enthalpy:               32.333 kcal/mol
   Total Entropy:               101.430  cal/mol.K

 Total job time:  121.78s(wall), 240.41s(cpu)
        *  Thank you very much for using Q-Chem.  Have a nice day.  *
