 Q-Chem 5.4 (devel), Q-Chem, Inc., Pleasanton, CA (2021)
 Q-Chem 5.4.1 for Intel X86 EM64T Linux

User input:
--------------------------------------------------------------
$molecule
0   1
 Fe -23.53596917 18.55044836 40.51969344    -1  0   0   0   0
C -22.70902819 15.14843776 40.42396512    -2  0   0   0   0
C -24.16461982 22.00222430 40.85417047    -2  0   0   0   0
C -23.10460299 18.55083743 43.94320568    -2  0   0   0   0
C -20.90809053 19.35078415 38.51509630    -2  0   0   0   0
C -26.69409870 18.39860915 39.09746775    -2  0   0   0   0
O -22.09534974 13.01053388 40.43204011    -3  0   0   0   0
O -24.23302169 24.12629099 40.87126371    -3  0   0   0   0
O -23.14091917 18.43075209 46.11898264    -3  0   0   0   0
O -19.31277483 19.69955861 36.99306708    -3  0   0   0   0
O -28.68968017 18.08481287 38.20929457    -3  0   0   0   0
H -1.80642033 4.28823311 47.70656694      6     13    0    0    0
C -1.48357943 2.19353321 47.43761552     1     12    14    15    16
H -0.22718087 1.93228524 49.02576426     6     13    0    0    0
H -3.34704668 1.30128038 47.85246261     6     13    0    0    0
C -0.70195054 1.39794314 44.71683050     2     13    17    18    19
H 1.33520638 1.94772591 44.58822974     6     16    0    0    0
H -0.68162724 -0.52446462 44.47700374     6     16    0    0    0
C -2.50240342 2.62264448 42.70812575     2     16    20   21   22
H -4.48938841 2.21290397 43.26569387     6     19    0    0    0
H -2.43688978 4.73662988 42.82701605     6     19    0    0    0
C -2.16316767 1.85160941 39.85695868     2     19   23   24   25
H -0.28565777 2.20976907 39.13604062     6    22    0    0    0
H -2.37426214 -0.20938877 39.70707497     6    22    0    0    0
C -4.02477323 3.35850423 38.13888791     2    22   26   27   28
H -5.88617099 2.84715875 38.56081042     6    25    0    0    0
H -3.80726122 5.35801380 38.61461061     6    25    0    0    0
C -3.65233127 2.74964175 35.32704713     2    25   29   30   31
H -1.85237026 3.69328102 34.76958829     6    28    0    0    0
H -3.54928679 0.74598518 35.03586172     6    28    0    0    0
C -5.95623427 3.89601022 33.85069685     2    28   32   33   34
H -7.71918627 3.25758150 34.81376683     6    31    0    0    0
H -5.92699773 5.86520518 34.28213795     6    31    0    0    0
C -6.17280732 3.51680283 30.94858527     2    31   35   36   37
H -4.95085532 4.59466882 29.82216070     6    34    0    0    0
H -5.92928078 1.49031498 30.33401600     6    34    0    0    0
C -8.81857940 4.59833033 30.21522088     2    34   38   39   40
H -10.37630110 3.43848870 31.00066559     6    37    0    0    0
H -8.87891431 6.61987643 30.96727362     6    37    0    0    0
C -9.10476199 4.94847892 27.36477251     2    37   41   42   43
H -7.81216844 6.44362992 26.72302996     6    40    0    0    0
H -8.80214203 3.17330578 26.57168813     6    40    0    0    0
C -11.78815444 5.88390387 26.53894745     2    40   44   45   46
H -13.20315594 4.79125523 27.64330845     6    43    0    0    0
H -12.06880918 7.80877480 27.08789556     6    43    0    0    0
C -12.24978739 5.62424438 23.64659800     1    43   47   48   49
H -10.97029030 6.90473532 22.82209789     6    46    0    0    0
H -14.12112788 6.27645765 23.37052286     6    46    0    0    0
H -11.86091231 3.75060117 22.91539056     6    46    0    0    0
H -22.36136131 11.39502938 31.59182105     6     51    0    0    0
C -21.91892561 12.21602722 33.41754126     1     50    52    53    54
H -22.34291953 14.32868380 33.52898688     6     51    0    0    0
H -23.00540514 11.13008069 34.74065002     6     51    0    0    0
C -19.10773993 11.68438904 33.92169596     2     51    55    56    57
H -18.60483779 12.46397158 35.78349657     6     54    0    0    0
H -18.71620290 9.62750381 33.89198137     6     54    0    0    0
C -17.50307596 12.74419323 31.83754480     2     54    58   59   60
H -17.51817733 14.71852768 31.58210541     6     57    0    0    0
H -15.52950898 12.21225172 32.20056370     6     57    0    0    0
C -18.00650909 11.80887005 29.09538999     2     57   61   62   63
H -18.37152948 9.79326448 29.20108888     6    60    0    0    0
H -20.00977263 12.42919696 28.73574418     6    60    0    0    0
C -16.16599230 12.81699442 27.09809647     2    60   64   65   66
H -16.16061317 14.81937911 26.95418771     6    63    0    0    0
H -14.23836392 12.55641942 27.79597398     6    63    0    0    0
C -16.40522198 11.68735361 24.30070354     2    63   67   68   69
H -14.81370848 12.23387566 23.03447307     6    66    0    0    0
H -15.81614146 9.80082648 24.43641830     6    66    0    0    0
C -19.09173663 11.86222600 23.07606606     2    66   70   71   72
H -20.65623546 11.07267903 24.39523958     6    69    0    0    0
H -19.52862859 13.75180604 22.62680640     6    69    0    0    0
C -19.37019539 10.15032351 20.66651967     2    69   73   74   75
H -17.88485391 10.50602482 19.29134852     6    72    0    0    0
H -19.02592143 8.14358241 21.23038241     6    72    0    0    0
C -22.09493842 10.33064001 19.56609961     2    72   76   77   78
H -23.29707029 9.79135682 21.20311958     6    75    0    0    0
H -22.36741361 12.30398533 19.23107508     6    75    0    0    0
C -22.70260872 8.58656951 17.27322472     2    75   79   80   81
H -21.32256010 8.93787221 15.62690294     6    78    0    0    0
H -22.22784285 6.76532436 17.86562576     6    78    0    0    0
C -25.59265688 8.84109149 16.45486032     2    78   82   83   84
H -26.57389108 8.30467747 18.21122598     6    81    0    0    0
H -26.30606186 10.69527877 16.14407893     6    81    0    0    0
C -26.02945559 7.17175949 14.08493382     1    81   85   86   87
H -28.10886872 7.08852111 13.83194571     6    84    0    0    0
H -25.01797949 5.36241214 14.17025010     6    84    0    0    0
H -25.37293302 8.02569437 12.42520939     6    84    0    0    0
H 8.61200205 13.80837979 32.22785685     6     89    0    0    0
C 8.74696820 12.81558871 30.41906115     1     88    90    91    92
H 10.64229763 12.83800924 29.63550467     6     89    0    0    0
H 8.35903375 10.84538996 30.85247781     6     89    0    0    0
C 6.97531430 13.72116328 28.31893401     2     89    93    94    95
H 5.13971646 14.03915153 29.10856035     6     92    0    0    0
H 7.94496356 15.46619189 27.79006061     6     92    0    0    0
C 6.91609680 11.72749882 26.16211125     2     92    96   97   98
H 8.67898482 10.87895508 25.71990053     6     95    0    0    0
H 5.84799567 10.05959688 26.58168075     6     95    0    0    0
C 5.95499354 12.91828562 23.78636467     2     95   99   100   101
H 3.94961783 13.36429887 24.15465043     6    98    0    0    0
H 6.74649981 14.81345398 23.33422574     6    98    0    0    0
C 5.84151670 11.24614801 21.34689221     2    98   102   103   104
H 7.66768947 10.96757877 20.59322661     6    101    0    0    0
H 5.02563438 9.55814459 21.87512998     6    101    0    0    0
C 4.08212561 12.69018700 19.44271047     2    101   105   106   107
H 2.10235184 12.35556138 19.92997906     6    104    0    0    0
H 4.33669800 14.65188639 19.31431266     6    104    0    0    0
C 4.16729791 11.63834608 16.73867518     2    104   108   109   110
H 2.88704491 12.83057585 15.69415923     6    107    0    0    0
H 5.98795164 11.97008958 16.03107198     6    107    0    0    0
C 3.43980083 8.84275525 16.64946481     2    107   111   112   113
H 4.98336600 7.88383420 17.63717384     6    110    0    0    0
H 1.58376312 8.57516624 17.78793498     6    110    0    0    0
C 3.13175830 7.90577772 14.03375480     2    110   114   115   116
H 2.18021302 9.30229020 12.79628682     6    113    0    0    0
H 4.94888727 7.81851087 13.15378663     6    113    0    0    0
C 1.81383671 5.28601580 13.84348506     2    113   117   118   119
H 3.21413916 3.73695564 14.36210510     6    116    0    0    0
H 0.41685883 5.18400081 15.19377685     6    116    0    0    0
C 0.67820837 4.67797337 11.16439503     2    116   120   121   122
H -0.78194097 3.13641167 11.40703324     6    119    0    0    0
H -0.45598171 6.21172349 10.33535357     6    119    0    0    0
C 2.81542723 4.06989381 9.42161244     1    119   123   124   125
H 2.37874173 3.44742606 7.43701900     6    122    0    0    0
H 3.63188321 2.49455948 10.27059828     6    122    0    0    0
H 4.12225113 5.63654895 9.17537435     6    122    0    0    0
H 0.57378412 31.49807154 41.26466596     6     127    0    0    0
C 2.13624489 31.38063885 42.50614796     1     126    128    129    130
H 2.94751711 29.45945139 42.23678460     6     127    0    0    0
H 3.53539607 32.66195319 41.81992326     6     127    0    0    0
C 1.48270214 31.86724645 45.20883121     2     127    131    132    133
H 3.28021221 31.67969412 46.18710129     6     130    0    0    0
H 0.71534174 33.78875575 45.28834610     6     130    0    0    0
C -0.43043631 29.95352034 46.40632220     2     130    134   135   136
H -2.07800347 29.73573559 45.28619006     6     133    0    0    0
H 0.43006455 28.09425773 46.63007963     6     133    0    0    0
C -1.19784853 30.74279457 49.07998002     2     133   137   138   139
H 0.52274432 30.93228256 50.24007310     6    136    0    0    0
H -1.92686854 32.62991673 49.29802004     6    136    0    0    0
C -3.26299089 29.02518406 50.19746617     2    136   140   141   142
H -4.92144029 28.78856010 49.04093235     6    139    0    0    0
H -2.49663768 27.16804888 50.75964786     6    139    0    0    0
C -4.58705339 30.32080035 52.53549558     2    139   143   144   145
H -3.16192105 31.14927796 53.81260617     6    142    0    0    0
H -5.65406556 31.91268695 51.77628343     6    142    0    0    0
C -6.40208256 28.75322891 54.09912402     2    142   146   147   148
H -7.17063424 27.38565399 52.85445900     6    145    0    0    0
H -5.24764401 27.47212605 55.20260058     6    145    0    0    0
C -8.39536775 30.25778586 55.64579626     2    145   149   150   151
H -8.83124737 31.98425263 54.58167337     6    148    0    0    0
H -10.08245415 29.18168044 56.08753538     6    148    0    0    0
C -7.28747542 31.26831820 57.98221529     2    148   152   153   154
H -6.83645002 29.80186781 59.28670824     6    151    0    0    0
H -5.43510273 31.95118029 57.44374039     6    151    0    0    0
C -8.87684234 33.32726581 59.44633225     2    151   155   156   157
H -7.99111010 33.58628367 61.36539802     6    154    0    0    0
H -8.71770130 35.22286791 58.87815373     6    154    0    0    0
C -11.69899406 32.65184472 59.65295690     2    154   158   159   160
H -12.29136619 32.47827741 57.88536596     6    157    0    0    0
H -11.83165116 30.73248059 60.27255656     6    157    0    0    0
C -13.42358148 34.43140083 61.13936671     1    157   161   162   163
H -15.39144834 34.28318817 60.54004576     6    160    0    0    0
H -12.79547128 36.42679613 60.89322669     6    160    0    0    0
H -13.61425356 34.39593993 63.17011129     6    160    0    0    0
H 2.30640315 46.32471562 32.73068704     6     165    0    0    0
C 2.78734015 44.84691076 34.03909937     1     164    166    167    168
H 1.92967026 43.08189003 33.43720560     6     165    0    0    0
H 4.73854206 44.19838389 34.05372150     6     165    0    0    0
C 1.73127020 45.62756493 36.46328769     2     165    169    170    171
H 2.09992710 47.50335693 36.87600035     6     168    0    0    0
H -0.37853966 45.52464676 36.21261065     6     168    0    0    0
C 2.48710579 43.80397554 38.74520420     2     168    172   173   174
H 1.92305340 41.92240965 38.04843287     6     171    0    0    0
H 4.60916953 43.91321404 38.92175510     6     171    0    0    0
C 1.04230565 44.67305842 41.10174258     2     171   175   176   177
H 1.50656203 46.63932254 41.46938511     6    174    0    0    0
H -0.98154425 44.64183458 40.70422888     6    174    0    0    0
C 1.99092238 42.77629129 43.16423612     2    174   178   179   180
H 1.38339003 40.91776643 42.83871163     6    177    0    0    0
H 4.12855355 42.95897037 43.58482126     6    177    0    0    0
C 0.97067674 43.31219316 45.81508656     2    177   181   182   183
H 1.54422201 45.23417155 46.29593599     6    180    0    0    0
H -1.00822742 43.60877446 45.65382784     6    180    0    0    0
C 1.78343638 41.25892830 47.65968342     2    180   184   185   186
H 0.90460570 39.42852765 47.19739396     6    183    0    0    0
H 3.82688496 40.86611011 47.55549288     6    183    0    0    0
C 1.14024725 41.59612639 50.51154419     2    183   187   188   189
H 2.23114598 43.41483682 51.06851457     6    186    0    0    0
H -0.86268302 42.12375768 50.78638849     6    186    0    0    0
C 1.60877891 39.53985773 52.39561007     2    186   190   191   192
H 0.65154602 37.90784990 51.62876840     6    189    0    0    0
H 3.59310872 38.94122233 52.44343707     6    189    0    0    0
C 1.01354655 40.22908768 55.12053864     2    189   193   194   195
H 2.47869885 41.66608312 55.81952823     6    192    0    0    0
H -0.76500666 41.22249496 55.25493568     6    192    0    0    0
C 1.24508396 38.04206248 56.92753625     2    192   196   197   198
H -0.38887368 36.85736818 56.48307555     6    195    0    0    0
H 3.07176776 37.10261969 56.53682279     6    195    0    0    0
C 0.81235492 38.80925792 59.68538819     1    195   199   200   201
H -0.18718831 37.26549225 60.80376205     6    198    0    0    0
H -0.53415839 40.33717118 59.88309685     6    198    0    0    0
H 2.35139562 39.75649391 60.62540280     6    198    0    0    0
H -11.05390581 29.28047991 23.47933144     6     203    0    0    0
C -11.21389114 30.78537291 24.90435002     1     202    204    205    206
H -13.22564503 31.52536178 24.53613389     6     203    0    0    0
H -10.90688210 29.56764684 26.67104858     6     203    0    0    0
C -9.10545709 32.65332564 24.48210577     2     203    207    208    209
H -9.47335442 34.37464948 25.68989921     6     206    0    0    0
H -7.36528411 31.76073035 25.06214139     6     206    0    0    0
C -8.54971371 33.54135759 21.68678519     2     206    210   211   212
H -7.36433085 35.21224153 21.80243354     6     209    0    0    0
H -7.42680303 32.09949234 20.65365192     6     209    0    0    0
C -10.97746292 34.14429691 20.31963627     2     209   213   214   215
H -12.27389125 32.49425933 20.22769336     6    212    0    0    0
H -11.95860632 35.81670653 21.09937147     6    212    0    0    0
C -10.69110094 35.03090593 17.55170996     2    212   216   217   218
H -9.79192985 36.88158230 17.79495290     6    215    0    0    0
H -9.41951809 33.84176966 16.35640793     6    215    0    0    0
C -13.21380628 35.26148027 16.05704500     2    215   219   220   221
H -13.87416911 33.40878099 15.68247131     6    218    0    0    0
H -14.73483867 36.19014207 17.25313366     6    218    0    0    0
C -12.98531795 36.78059959 13.62803703     2    218   222   223   224
H -11.88553473 38.53879009 13.73214532     6    221    0    0    0
H -12.22897720 35.48244899 12.37162096     6    221    0    0    0
C -15.76023626 37.40177018 12.86755421     2    221   225   226   227
H -17.01522606 35.83141318 12.88124755     6    224    0    0    0
H -16.42514080 38.68881833 14.33958947     6    224    0    0    0
C -15.98009085 39.01053893 10.44287347     2    224   228   229   230
H -14.69127174 40.64290634 10.75102944     6    227    0    0    0
H -14.98832282 38.06491744 8.98358122     6    227    0    0    0
C -18.67593410 39.75846684 9.63024120     2    227   231   232   233
H -19.87186868 38.07282140 9.48614211     6    230    0    0    0
H -19.58689643 41.09412110 11.07836354     6    230    0    0    0
C -18.65344010 41.08877346 7.00123329     2    230   234   235   236
H -17.71700928 42.90588089 7.21019998     6    233    0    0    0
H -17.53149971 39.98156430 5.83409605     6    233    0    0    0
C -21.05419737 41.59224635 5.65145027     1    233   237   238   239
H -20.73120419 42.04980236 3.78712901     6    236    0    0    0
H -21.84739011 43.22397022 6.42935793     6    236    0    0    0
H -22.55252634 40.09932058 5.87652886     6    236    0    0    0
H -13.38978512 10.11749423 19.44640639     6     241    0    0    0
C -12.79813945 10.94333525 17.64403906     1     240    242    243    244
H -12.80439062 13.03851783 17.83891298     6     241    0    0    0
H -10.71504661 10.51445431 17.48291940     6     241    0    0    0
C -14.28353503 9.90454815 15.37069973     2     241    245    246    247
H -16.23334612 10.75453462 15.68337286     6     244    0    0    0
H -13.46420317 10.72204257 13.59565411     6     244    0    0    0
C -14.32971410 7.01515873 15.44243851     2     244    248   249   250
H -12.48136852 6.22479772 14.73500999     6     247    0    0    0
H -14.28360382 6.16789031 17.33055907     6     247    0    0    0
C -16.14510277 5.66952710 13.64334145     2     247   251   252   253
H -15.88237649 3.67877654 14.08443841     6    250    0    0    0
H -18.07707074 6.39194133 14.18613801     6    250    0    0    0
C -15.70381101 6.07659943 10.85545136     2    250   254   255   256
H -16.10793795 8.00616499 10.41019127     6    253    0    0    0
H -13.59612921 5.70072320 10.61938370     6    253    0    0    0
C -17.34209722 4.17404887 9.39129036     2    253   257   258   259
H -16.42077193 3.85885269 7.59565839     6    256    0    0    0
H -17.39832805 2.40286665 10.49522552     6    256    0    0    0
C -19.93512147 5.29627323 8.94186010     2    256   260   261   262
H -20.44372249 6.00932129 10.77925792     6    259    0    0    0
H -19.85081187 6.93073625 7.58538058     6    259    0    0    0
C -21.78737568 3.31585855 7.83299688     2    259   263   264   265
H -20.99795149 2.81252858 6.04351981     6    262    0    0    0
H -21.87976548 1.59057451 8.97513411     6    262    0    0    0
C -24.48699247 4.20506512 7.43130132     2    262   266   267   268
H -25.07314123 4.51902162 9.47380254     6    265    0    0    0
H -24.89692930 5.99685159 6.56196321     6    265    0    0    0
C -26.10369093 2.21304445 6.06502764     2    265   269   270   271
H -25.33712802 1.60901320 4.29313477     6    268    0    0    0
H -26.08087676 0.41770212 7.09647848     6    268    0    0    0
C -28.74687688 3.02923703 5.55669778     2    268   272   273   274
H -29.57896361 4.09605826 7.12934301     6    271    0    0    0
H -28.80495107 4.36716665 3.97581211     6    271    0    0    0
C -30.64261542 0.83501999 4.87672408     1    271   275   276   277
H -29.81780444 -0.33224871 3.46098935     6    274    0    0    0
H -32.49330301 1.53216470 4.38234987     6    274    0    0    0
H -30.94575262 -0.45830282 6.48358955     6    274    0    0    0
H -1.44402068 29.77142687 21.93804218     6     279    0    0    0
C -2.30372929 28.73402801 20.36012655     1     278    280    281    282
H -3.48061394 30.08270331 19.46107188     6     279    0    0    0
H -0.80285252 28.20764991 18.98078674     6     279    0    0    0
C -3.70181519 26.38070840 21.29869020     2     279    283    284    285
H -2.47295259 24.93279635 22.17535179     6     282    0    0    0
H -4.65968156 26.82067582 23.02155838     6     282    0    0    0
C -5.43580147 25.15504053 19.29325500     2     282    286   287   288
H -4.14144236 24.70227815 17.78663335     6     285    0    0    0
H -6.23939219 23.34261506 20.05807685     6     285    0    0    0
C -7.48548893 26.96479357 18.35409428     2     285   289   290   291
H -8.27140049 27.86195897 20.18720765     6    288    0    0    0
H -6.69043068 28.48776255 17.12520329     6    288    0    0    0
C -9.76868777 25.65187789 16.92990567     2    288   292   293   294
H -9.04112259 24.83106213 15.19314191     6    291    0    0    0
H -10.40741559 24.09663300 18.15567088     6    291    0    0    0
C -11.94304517 27.35692777 16.15459404     2    291   295   296   297
H -12.50676656 28.33824095 17.93409759     6    294    0    0    0
H -11.43856400 28.98539550 15.02338113     6    294    0    0    0
C -14.29052223 25.86424009 14.89720101     2    294   298   299   300

   18   -1830.5159446221      2.67E-09 Convergence criterion met
 Total energy in the final basis set = -1828.25151082
 Total job time:  17.55s(wall), 31.11s(cpu)
        *  Thank you very much for using Q-Chem.  Have a nice day.  *

User input: 2 of 2

                  Welcome to Q-Chem
     A Quantum Leap Into The Future Of Chemistry

 Q-Chem 5.4 (devel), Q-Chem, Inc., Pleasanton, CA (2021)

 E. Epifanovsky,  A. T. B. Gilbert,  Xintian Feng,  Joonho Lee,  Yuezhi Mao,
 N. Mardirossian,  P. Pokhilko,  A. White,  M. Wormit,  M. P. Coons,
 A. L. Dempwolff,  Zhengting Gan,  D. Hait,  P. R. Horn,  L. D. Jacobson,
 I. Kaliman,  J. Kussmann,  A. W. Lange,  Ka Un Lao,  D. S. Levine,  Jie Liu,
 S. C. McKenzie,  A. F. Morrison,  K. Nanda,  F. Plasser,  D. R. Rehn,
 M. L. Vidal,  Zhi-Qiang You,  Ying Zhu,  B. Alam,  B. Albrecht,
 A. Aldossary,  E. Alguire,  J. H. Andersen,  D. Barton,  K. Begam,  A. Behn,
 Y. A. Bernard,  E. J. Berquist,  H. Burton,  A. Carreras,  K. Carter-Fenk,
 R. Chakraborty,  A. D. Chien,  K. D. Closser,  V. Cofer-Shabica,
 S. Dasgupta,  Jia Deng,  M. de Wergifosse,  M. Diedenhofen,  Hainam Do,
 S. Ehlert,  Po-Tung Fang,  S. Fatehi,  Qingguo Feng,  T. Friedhoff,
 J. Gayvert,  Qinghui Ge,  G. Gidofalvi,  M. Goldey,  J. Gomes,
 C. Gonzalez-Espinoza,  S. Gulania,  A. Gunina,  M. W. D. Hanson-Heine,
 P. H. P. Harbach,  A. W. Hauser,  M. F. Herbst,  M. Hernandez Vera,
 M. Hodecker,  Z. C. Holden,  S. Houck,  Xunkun Huang,  Kerwin Hui,
 B. C. Huynh,  M. Ivanov,  Hyunjun Ji,  Hanjie Jiang,  B. Kaduk,  S. Kaehler,
 K. Khistyaev,  Jaehoon Kim,  P. Klunzinger,  Z. Koczor-Benda,
 Joong Hoon Koh,  D. Kosenkov,  L. Koulias,  T. Kowalczyk,  C. M. Krauter,
 K. Kue,  A. Kunitsa,  T. Kus,  A. Landau,  K. V. Lawler,  D. Lefrancois,
 S. Lehtola,  Rain Li,  Yi-Pei Li,  Jiashu Liang,  M. Liebenthal,
 Hung-Hsuan Lin,  You-Sheng Lin,  Fenglai Liu,  Kuan-Yu Liu,
 M. Loipersberger,  A. Luenser,  A. Manjanath,  P. Manohar,  E. Mansoor,
 S. F. Manzer,  Shan-Ping Mao,  A. V. Marenich,  T. Markovich,  S. Mason,
 S. A. Maurer,  P. F. McLaughlin,  M. F. S. J. Menger,  J.-M. Mewes,
 S. A. Mewes,  P. Morgante,  J. W. Mullinax,  K. J. Oosterbaan,  G. Paran,
 Alexander C. Paul,  Suranjan K. Paul,  F. Pavosevic,  Zheng Pei,  S. Prager,
 E. I. Proynov,  E. Ramos,  B. Rana,  A. E. Rask,  A. Rettig,  R. M. Richard,
 F. Rob,  E. Rossomme,  T. Scheele,  M. Scheurer,  M. Schneider,
 N. Sergueev,  S. M. Sharada,  W. Skomorowski,  D. W. Small,  C. J. Stein,
 Yu-Chuan Su,  E. J. Sundstrom,  Zhen Tao,  J. Thirman,  T. Tsuchimochi,
 N. M. Tubman,  S. P. Veccham,  O. Vydrov,  J. Wenzel,  J. Witte,  A. Yamada,
 Kun Yao,  S. Yeganeh,  S. R. Yost,  A. Zech,  Igor Ying Zhang,  Xing Zhang,
 Yu Zhang,  D. Zuev,  A. Aspuru-Guzik,  A. T. Bell,  N. A. Besley,
 K. B. Bravaya,  B. R. Brooks,  D. Casanova,  Jeng-Da Chai,  S. Coriani,
 C. J. Cramer,  A. E. DePrince, III,  R. A. DiStasio Jr.,  A. Dreuw,
 B. D. Dunietz,  T. R. Furlani,  W. A. Goddard III,  S. Grimme,
 S. Hammes-Schiffer,  T. Head-Gordon,  W. J. Hehre,  Chao-Ping Hsu,
 T.-C. Jagau,  Yousung Jung,  A. Klamt,  Jing Kong,  D. S. Lambrecht,
 WanZhen Liang,  N. J. Mayhall,  C. W. McCurdy,  J. B. Neaton,
 C. Ochsenfeld,  J. A. Parkhill,  R. Peverati,  V. A. Rassolov,  Yihan Shao,
 L. V. Slipchenko,  T. Stauch,  R. P. Steele,  J. E. Subotnik,
 A. J. W. Thom,  A. Tkatchenko,  D. G. Truhlar,  T. Van Voorhis,
 T. A. Wesolowski,  K. B. Whaley,  H. L. Woodcock III,  P. M. Zimmerman,
 S. Faraji,  P. M. W. Gill,  M. Head-Gordon,  J. M. Herbert,  A. I. Krylov

 Additional authors for Version 5.4.1:
 S. Kotaru,  Shaozhi Li,  Xiangyuan Li,  F. Matz,  A. Molle,  Haisheng Ren,
 Yingli Su,  Hung-Yi Tsai,  C. Utku,  Fang Wang

 Contributors to earlier versions of Q-Chem not listed above:
 R. D. Adamson,  B. Austin,  R. Baer,  J. Baker,  G. J. O. Beran,
 K. Brandhorst,  S. T. Brown,  E. F. C. Byrd,  A. K. Chakraborty,
 G. K. L. Chan,  Chun-Min Chang,  Yunqing Chen,  C.-L. Cheng,
 Siu Hung Chien,  D. M. Chipman,  D. L. Crittenden,  H. Dachsel,
 R. J. Doerksen,  A. D. Dutoi,  R. G. Edgar,  J. Fosso-Tande,
 L. Fusti-Molnar,  D. Ghosh,  A. Ghysels,  A. Golubeva-Zadorozhnaya,
 J. Gonthier,  M. S. Gordon,  S. R. Gwaltney,  G. Hawkins,  J. E. Herr,
 A. Heyden,  S. Hirata,  E. G. Hohenstein,  G. Kedziora,  F. J. Keil,
 C. Kelley,  Jihan Kim,  R. A. King,  R. Z. Khaliullin,  P. P. Korambath,
 W. Kurlancheek,  A. Laurent,  A. M. Lee,  M. S. Lee,  S. V. Levchenko,
 Ching Yeh Lin,  D. Liotard,  E. Livshits,  R. C. Lochan,  I. Lotan,
 L. A. Martinez-Martinez,  P. E. Maslen,  N. Nair,  D. P. O'Neill,
 D. Neuhauser,  E. Neuscamman,  C. M. Oana,  R. Olivares-Amaya,  R. Olson,
 T. M. Perrine,  B. Peters,  P. A. Pieniazek,  A. Prociuk,  Y. M. Rhee,
 J. Ritchie,  M. A. Rohrdanz,  E. Rosta,  N. J. Russ,  H. F. Schaefer III,
 M. W. Schmidt,  N. E. Schultz,  S. Sharma,  N. Shenvi,  C. D. Sherrill,
 A. C. Simmonett,  A. Sodt,  T. Stein,  D. Stuck,  K. S. Thanthiriwatte,
 V. Vanovschi,  L. Vogt,  Tao Wang,  A. Warshel,  M. A. Watson,
 C. F. Williams,  Q. Wu,  X. Xu,  Jun Yang,  W. Zhang,  Yan Zhao

 Please cite Q-Chem as follows:
 Y. Shao et al., Mol. Phys. 113, 184-215 (2015)
 DOI: 10.1080/00268976.2014.952696

 Q-Chem 5.4.1 for Intel X86 EM64T Linux

 Parts of Q-Chem use Armadillo 9.900.5 (Nocturnal Misbehaviour).
 http://arma.sourceforge.net/

 Q-Chem begins on Wed Jun  1 23:30:40 2022

 Host: p09r14n13.grace.hpc.yale.internal
0

     Scratch files written to /home/tl686/scratch60/qchem_dev/scratch/qchem244350//
 Processing $rem in /home/tl686/qchem_dev/qchem/config/preferences:
 Processing $rem in /home/tl686/.qchemrc:
Applying user defined connections for MM calculations
The previous job contains 0 fragments, simply inherited here

 Checking the input file for inconsistencies... 	...done.

--------------------------------------------------------------
User input:
--------------------------------------------------------------

$molecule
READ
$end

$qm_atoms
1:11
$end

$force_field_params
NumAtomTypes 3
AtomType -1   0.0238     3.11   0.2868
AtomType -2   0.07124    3.30   0.6597
AtomType -3  -0.0760     3.09   0.1434
$end

$rem
     JOBTYPE  freq
     METHOD   bp86
     BASIS    def2-msvp
     MAX_SCF_CYCLES   800
     INPUT_BOHR TRUE
     SYM_IGNORE TRUE
     SCF_GUESS     read
     user_connect            true
     qm_mm_interface         ONIOM
     force_field             oplsaa
$end

--------------------------------------------------------------

    2   -1830.5159446222      9.38E-09 Convergence criterion met
 Total energy in the final basis set = -1828.25151082

                    Orbital Energies (a.u.)
 --------------------------------------------------------------

 Alpha MOs
 -- Occupied --
******** -29.6319 -25.5924 -25.5784 -25.5759 -18.9017 -18.8829 -18.8787
-18.8721 -18.8691 -10.0641 -10.0519 -10.0426 -10.0378 -10.0377  -3.3147
 -2.1498  -2.1239  -2.1196  -1.0957  -1.0570  -1.0472  -1.0423  -1.0324
 -0.5692  -0.5282  -0.5176  -0.5135  -0.5119  -0.4599  -0.4576  -0.4555
 -0.4347  -0.4255  -0.4228  -0.4200  -0.4144  -0.4105  -0.4091  -0.4030
 -0.4025  -0.3968  -0.3956  -0.3790  -0.2687  -0.2667  -0.2281  -0.2159

          Ground-State Mulliken Net Atomic Charges

     Atom                 Charge (a.u.)
  ----------------------------------------
      1 Fe                   -0.481580
      2 C                     0.205255
      3 C                     0.191019
      4 C                     0.202385
      5 C                     0.214108
      6 C                     0.206554
      7 O                    -0.122309
      8 O                    -0.059605
      9 O                    -0.101876
     10 O                    -0.133754
     11 O                    -0.120196
  ----------------------------------------
  Sum of atomic charges =     0.000000

                    Cartesian Multipole Moments
 -----------------------------------------------------------------
    Charge (ESU x 10^10)
                -0.0000
    Dipole Moment (Debye)
         X      -0.1122392444      Y       0.8203722477      Z       0.4821505188
       Tot       0.9581635537
    Quadrupole Moments (Debye-Ang)
        XX     -67.5027     XY     -12.0012     YY     -51.5950
        XZ      -7.7896     YZ      22.9115     ZZ     -49.6683
