 Q-Chem 5.4 (devel), Q-Chem, Inc., Pleasanton, CA (2021)
 Q-Chem 5.4.1 for Intel X86 EM64T Linux

User input:
--------------------------------------------------------------
$molecule
0   1
 Fe 1270.48226110 -59.85383085 -32.02031121    -1  0   0   0   0
C 1268.76648401 -62.81885311 -31.38605172    -2  0   0   0   0
C 1272.58130055 -57.30040121 -32.35851923    -2  0   0   0   0
C 1270.18049876 -60.20092201 -35.54484812    -2  0   0   0   0
C 1268.04442062 -58.23294973 -30.25016530    -2  0   0   0   0
C 1272.78487404 -61.34723400 -30.75783633    -2  0   0   0   0
O 1267.44925526 -64.44974000 -30.85281373    -3  0   0   0   0
O 1273.84121441 -55.51136224 -32.52401656    -3  0   0   0   0
O 1269.87050700 -60.66156524 -37.66059126    -3  0   0   0   0
O 1266.53853944 -57.44035526 -28.92594726    -3  0   0   0   0
O 1275.07819296 -62.58214558 -29.65826389    -3  0   0   0   0
H 1250.08632439 -73.88092238 -50.29345005      6     13    0    0    0
C 1249.77213731 -75.22649185 -48.89481780     1     12    14    15    16
H 1248.72303307 -76.84933293 -49.66189656     6     13    0    0    0
H 1251.58577530 -75.84874077 -48.33609058     6     13    0    0    0
C 1248.10349597 -74.26564365 -46.65595200     2     13    17    18    19
H 1246.35201041 -73.82459928 -47.42146792     6     16    0    0    0
H 1247.56742498 -75.94283102 -45.51004320     6     16    0    0    0
C 1249.17582061 -71.90085089 -45.34424137     2     16    20   21   22
H 1250.88239304 -72.36558710 -44.23066104     6     19    0    0    0
H 1249.80883421 -70.38570878 -46.55984533     6     19    0    0    0
C 1247.20952522 -70.82195196 -43.38141028     2     19   23   24   25
H 1245.94791302 -69.49690077 -44.28587220     6    22    0    0    0
H 1245.79118366 -72.41949908 -43.05945882     6    22    0    0    0
C 1248.63066601 -69.80909958 -41.14918486     2    22   26   27   28
H 1249.84815451 -71.38140980 -40.62936705     6    25    0    0    0
H 1249.91564149 -68.30031490 -41.92027526     6    25    0    0    0
C 1246.91695824 -68.72787445 -39.05148979     2    25   29   30   31
H 1245.50441058 -67.45221124 -39.80135890     6    28    0    0    0
H 1245.76804641 -70.18637822 -38.27443970     6    28    0    0    0
C 1248.39365801 -67.52929028 -36.97910217     2    28   32   33   34
H 1249.80999057 -68.90881665 -36.37231700     6    31    0    0    0
H 1249.47962099 -65.94251032 -37.79397408     6    31    0    0    0
C 1246.78896943 -66.80208296 -34.64960405     2    31   35   36   37
H 1245.47812745 -65.23670367 -35.01099840     6    34    0    0    0
H 1245.69232499 -68.51407162 -34.17791167     6    34    0    0    0
C 1248.38209053 -65.90054901 -32.36542858     2    34   38   39   40
H 1249.81030686 -67.33265760 -32.26867161     6    37    0    0    0
H 1249.51190223 -64.30721339 -32.82516611     6    37    0    0    0
C 1246.91306618 -65.90064657 -29.91620457     2    37   41   42   43
H 1245.26192022 -64.68572130 -30.23964242     6    40    0    0    0
H 1246.19632111 -67.92504749 -29.78028609     6    40    0    0    0
C 1248.41720613 -65.24428869 -27.55819697     2    40   44   45   46
H 1249.89396507 -66.60811305 -27.30493449     6    43    0    0    0
H 1249.24442714 -63.40576970 -27.99134258     6    43    0    0    0
C 1246.88018100 -65.22671264 -24.89675998     1    43   47   48   49
H 1245.40162573 -63.81311968 -24.73331761     6    46    0    0    0
H 1248.19777053 -64.49491589 -23.52467080     6    46    0    0    0
H 1246.25596594 -67.22975757 -24.53162890     6    46    0    0    0
H 1262.29676385 -61.05910595 -23.12407401     6     51    0    0    0
C 1263.46195185 -61.07275066 -24.82375659     1     50    52    53    54
H 1263.74022712 -59.09109130 -25.24485730     6     51    0    0    0
H 1265.37517163 -61.85285976 -24.39236160     6     51    0    0    0
C 1262.27023028 -62.30890188 -27.15091135     2     51    55    56    57
H 1263.40112881 -62.18163010 -28.72970712     6     54    0    0    0
H 1262.18514665 -64.30666511 -26.55096630     6     54    0    0    0
C 1259.62654171 -61.30832664 -27.72089826     2     54    58   59   60
H 1259.71438579 -59.18968307 -27.77008292     6     57    0    0    0
H 1258.99749394 -61.84015467 -29.62642094     6     57    0    0    0
C 1257.66222687 -61.81100523 -25.57878733     2     57   61   62   63
H 1257.55937698 -63.78478951 -24.85274730     6    60    0    0    0
H 1258.06469323 -60.67832332 -24.04085225     6    60    0    0    0
C 1255.18665548 -60.77133912 -26.42160000     2    60   64   65   66
H 1255.35403592 -58.71076604 -27.00113324     6    63    0    0    0
H 1254.68332993 -61.52558019 -28.29585873     6    63    0    0    0
C 1253.26769688 -61.70467429 -24.48828141     2    63   67   68   69
H 1251.35107066 -61.25692413 -25.21074716     6    66    0    0    0
H 1253.51673703 -63.65174880 -24.43107887     6    66    0    0    0
C 1253.21472676 -60.66672915 -21.79610288     2    66   70   71   72
H 1255.00858499 -61.02312631 -21.17553721     6    69    0    0    0
H 1252.87281130 -58.59018765 -21.91882330     6    69    0    0    0
C 1251.10771252 -61.66227505 -20.01541603     2    69   73   74   75
H 1249.32891289 -60.80566925 -20.78754195     6    72    0    0    0
H 1250.98594177 -63.68776484 -20.22861203     6    72    0    0    0
C 1251.53286639 -61.10516096 -17.16181166     2    72   76   77   78
H 1253.53674849 -61.15125962 -16.84097476     6    75    0    0    0
H 1251.11736578 -59.14811307 -16.57730067     6    75    0    0    0
C 1250.37302873 -62.87428611 -15.26020404     2    75   79   80   81
H 1248.38841070 -62.90484882 -15.89920885     6    78    0    0    0
H 1250.72801618 -64.94919288 -15.44402780     6    78    0    0    0
C 1250.76722549 -61.97623050 -12.60315747     2    78   82   83   84
H 1252.72938150 -61.52745927 -12.41988324     6    81    0    0    0
H 1249.76636911 -60.17729372 -12.37773467     6    81    0    0    0
C 1250.16742517 -64.09357776 -10.61431512     1    81   85   86   87
H 1250.48895805 -63.26789744 -8.72592268     6    84    0    0    0
H 1251.49466627 -65.69004635 -11.00185441     6    84    0    0    0
H 1248.13631106 -64.65500815 -10.83360902     6    84    0    0    0
H 1237.00406416 -46.26885000 -48.82548427     6     89    0    0    0
C 1238.06741456 -44.59886105 -48.63970460     1     88    90    91    92
H 1237.66276446 -43.51376916 -50.24629270     6     89    0    0    0
H 1237.32205749 -43.44540789 -46.99060693     6     89    0    0    0
C 1240.79648041 -45.20543427 -48.25970411     2     89    93    94    95
H 1241.59289644 -46.43865624 -49.64641535     6     92    0    0    0
H 1241.94909422 -43.54271915 -48.46139532     6     92    0    0    0
C 1241.35386394 -46.19619389 -45.62821054     2     92    96   97   98
H 1243.40455269 -46.36649255 -45.32458049     6     95    0    0    0
H 1240.67898506 -44.95832443 -44.12979989     6     95    0    0    0
C 1240.18624568 -48.97458414 -45.13059851     2     95   99   100   101
H 1238.43659027 -49.14184679 -46.04804209     6    98    0    0    0
H 1241.73156259 -50.22743657 -45.95144021     6    98    0    0    0
C 1240.06535069 -49.37788278 -42.28100301     2    98   102   103   104
H 1241.92030460 -49.35700478 -41.36699191     6    101    0    0    0
H 1238.87697791 -48.07605813 -41.23244856     6    101    0    0    0
C 1239.03436590 -52.08113115 -41.73191927     2    101   105   106   107
H 1237.24072218 -52.20769786 -42.62394788     6    104    0    0    0
H 1240.37578578 -53.28481770 -42.71700427     6    104    0    0    0
C 1238.85728059 -52.69180398 -38.88975616     2    104   108   109   110
H 1240.71227067 -53.10957278 -38.12459032     6    107    0    0    0
H 1238.17685080 -50.94267069 -38.00732667     6    107    0    0    0
C 1237.26613829 -55.06805987 -38.16803912     2    107   111   112   113
H 1236.13544524 -55.87750711 -39.80145790     6    110    0    0    0
H 1238.48424300 -56.71047516 -37.66715446     6    110    0    0    0
C 1235.40406945 -54.56409496 -36.09367818     2    110   114   115   116
H 1236.46910345 -53.80546509 -34.53925287     6    113    0    0    0
H 1234.18944461 -53.05376067 -36.69549054     6    113    0    0    0
C 1233.70790431 -56.77352073 -35.32353408     2    113   117   118   119
H 1232.57102099 -57.43818170 -36.91512271     6    116    0    0    0
H 1234.90017563 -58.37940071 -34.63902200     6    116    0    0    0
C 1232.05515097 -56.18114240 -32.99060474     2    116   120   121   122
H 1231.36539614 -58.02846367 -32.25270659     6    119    0    0    0
H 1233.25155983 -55.37302010 -31.54086030     6    119    0    0    0
C 1229.67672122 -54.41656210 -33.39282007     1    119   123   124   125
H 1228.07377173 -54.69249858 -32.14600027     6    122    0    0    0
H 1228.83082618 -54.53719643 -35.15445274     6    122    0    0    0
H 1230.03518342 -52.40369780 -32.99931937     6    122    0    0    0
H 1258.96328227 -41.53751882 -49.23543496     6     127    0    0    0
C 1260.06200918 -42.82967203 -50.38029213     1     126    128    129    130
H 1258.76514390 -43.35782700 -51.76421641     6     127    0    0    0
H 1261.63423030 -41.74402578 -51.23123399     6     127    0    0    0
C 1261.15955841 -45.06541459 -48.79331634     2     127    131    132    133
H 1262.28162001 -44.26276523 -47.32878186     6     130    0    0    0
H 1259.73147215 -46.01202620 -47.84624403     6     130    0    0    0
C 1262.62313086 -46.94546164 -50.50216150     2     130    134   135   136
H 1261.35822564 -47.77005086 -51.82422600     6     133    0    0    0
H 1263.93287623 -45.93607267 -51.68601550     6     133    0    0    0
C 1263.83446369 -48.99991449 -48.84993839     2     133   137   138   139
H 1264.65743489 -48.15252598 -47.07624022     6    136    0    0    0
H 1262.35074457 -50.21960926 -48.27832599     6    136    0    0    0
C 1266.01374275 -50.29315403 -50.20598350     2    136   140   141   142
H 1265.47079744 -51.58719686 -51.61604873     6    139    0    0    0
H 1267.23065696 -48.80267433 -51.05359161     6    139    0    0    0
C 1267.68916494 -51.62926053 -48.29806019     2    139   143   144   145
H 1268.38581495 -50.42096522 -46.88673923     6    142    0    0    0
H 1266.45663562 -52.76001159 -47.10478796     6    142    0    0    0
C 1269.68168441 -53.39496958 -49.51101653     2    142   146   147   148
H 1269.02015847 -54.86275442 -50.90935029     6    145    0    0    0
H 1271.04066212 -52.41612674 -50.60391194     6    145    0    0    0
C 1271.24672231 -54.92057287 -47.48539118     2    145   149   150   151
H 1271.86735129 -53.74210814 -45.96352764     6    148    0    0    0
H 1269.83633609 -56.32540987 -46.67754125     6    148    0    0    0
C 1273.66434253 -56.23790774 -48.32612382     2    148   152   153   154
H 1273.37584325 -56.98388470 -50.20202718     6    151    0    0    0
H 1274.95404052 -54.60484807 -48.54038894     6    151    0    0    0
C 1274.82896449 -58.16747095 -46.51747062     2    151   155   156   157
H 1276.59649917 -58.60489526 -47.46594229     6    154    0    0    0
H 1275.13420684 -57.35072302 -44.54506937     6    154    0    0    0
C 1273.26106375 -60.50428955 -46.21522679     2    154   158   159   160
H 1271.39614394 -59.91965667 -45.60804455     6    157    0    0    0
H 1273.02825572 -61.35467808 -48.00303031     6    157    0    0    0
C 1274.93279968 -62.10459847 -44.49079584     1    157   161   162   163
H 1274.10712153 -63.97420844 -44.32153678     6    160    0    0    0
H 1275.14848671 -61.36417570 -42.58305586     6    160    0    0    0
H 1276.85615770 -62.17450706 -45.14942797     6    160    0    0    0
H 1239.68830808 -32.45243334 -36.65398387     6     165    0    0    0
C 1241.60707356 -32.65766709 -37.10807760     1     164    166    167    168
H 1242.32751473 -32.34606458 -35.22739532     6     165    0    0    0
H 1241.89720131 -34.56474909 -37.58370775     6     165    0    0    0
C 1242.70366516 -30.94521211 -39.14040598     2     165    169    170    171
H 1242.52769471 -31.89716696 -40.94967542     6     168    0    0    0
H 1241.47615146 -29.28500518 -39.27505151     6     168    0    0    0
C 1245.33038710 -29.91116107 -38.57016009     2     168    172   173   174
H 1245.15363286 -28.73590073 -37.06393273     6     171    0    0    0
H 1246.43521970 -31.48188865 -37.87723986     6     171    0    0    0
C 1246.65518474 -28.69430322 -40.86974409     2     171   175   176   177
H 1246.22042122 -29.82671909 -42.65657455     6    174    0    0    0
H 1245.76953721 -26.94411731 -41.20602440     6    174    0    0    0
C 1249.61244685 -28.22786406 -40.54927182     2    174   178   179   180
H 1250.22715706 -27.27739326 -38.84128956     6    177    0    0    0
H 1250.27017192 -30.16897631 -40.43812921     6    177    0    0    0
C 1250.92517655 -26.88425842 -42.78938498     2    177   181   182   183
H 1250.60622280 -28.00341423 -44.52437547     6    180    0    0    0
H 1249.99967756 -24.99551524 -43.10524226     6    180    0    0    0
C 1253.78567556 -26.53368146 -42.20032069     2    180   184   185   186
H 1254.26676328 -25.22247916 -40.51670948     6    183    0    0    0
H 1254.64476032 -28.38039963 -42.18872730     6    183    0    0    0
C 1255.16542157 -25.14372443 -44.30308169     2    183   187   188   189
H 1254.12857871 -25.55226378 -46.11043953     6    186    0    0    0
H 1254.84259463 -23.09970893 -43.94059780     6    186    0    0    0
C 1257.99261086 -25.87620040 -44.50056813     2    186   190   191   192
H 1258.92127910 -26.16527475 -42.73554649     6    189    0    0    0
H 1258.00881473 -27.75059628 -45.45134810     6    189    0    0    0
C 1259.54349465 -23.90339520 -46.01462335     2    189   193   194   195
H 1258.74605143 -23.13286149 -47.78284629     6    192    0    0    0
H 1259.80943470 -22.28165982 -44.59658798     6    192    0    0    0
C 1262.08928025 -25.09798388 -47.00348701     2    192   196   197   198
H 1263.38500354 -25.45103187 -45.43581251     6    195    0    0    0
H 1261.75289088 -26.95389418 -47.60075026     6    195    0    0    0
C 1263.11171617 -23.44535257 -49.28069033     1    195   199   200   201
H 1264.68274727 -24.44484533 -50.30488790     6    198    0    0    0
H 1263.75630611 -21.61838541 -48.57575933     6    198    0    0    0
H 1261.66404336 -23.12869791 -50.76313842     6    198    0    0    0
H 1252.46740823 -33.21268841 -33.58439800     6     203    0    0    0
C 1250.90419764 -31.93962294 -33.61449248     1     202    204    205    206
H 1251.26589637 -30.09258516 -32.71936783     6     203    0    0    0
H 1251.12565667 -31.71827081 -35.68842282     6     203    0    0    0
C 1248.35764872 -33.00016262 -32.58360416     2     203    207    208    209
H 1246.83655834 -31.66063615 -32.83148269     6     206    0    0    0
H 1247.77964637 -34.88503416 -33.33785206     6     206    0    0    0
C 1248.80928535 -33.58889253 -29.74001895     2     206    210   211   212
H 1247.24176296 -34.37167942 -28.75973438     6     209    0    0    0
H 1250.33123181 -34.76134534 -29.42713366     6     209    0    0    0
C 1249.42622174 -31.20059588 -28.18738573     2     209   213   214   215
H 1251.22814435 -30.45350784 -28.73571207     6    212    0    0    0
H 1248.09437496 -29.69343872 -28.33134688     6    212    0    0    0
C 1249.74256832 -31.74895070 -25.47641005     2    212   216   217   218
H 1247.92298135 -32.56621891 -24.93628144     6    215    0    0    0
H 1251.20860328 -33.04099188 -25.32141557     6    215    0    0    0
C 1250.52233584 -29.56194032 -23.63785485     2    215   219   220   221
H 1252.40171088 -28.73906573 -24.11932660     6    218    0    0    0
H 1249.16886117 -28.06405186 -23.98227282     6    218    0    0    0
C 1250.08829177 -30.41912159 -20.84232581     2    218   222   223   224
H 1248.16078510 -29.83093055 -20.27157017     6    221    0    0    0
H 1249.80211108 -32.34464857 -20.51383282     6    221    0    0    0
C 1251.93957867 -29.09550605 -19.20026585     2    221   225   226   227
H 1253.65662430 -30.11651209 -19.33616135     6    224    0    0    0
H 1252.04142047 -27.18360212 -19.76648564     6    224    0    0    0
C 1251.13906273 -29.06470626 -16.33835412     2    224   228   229   230
H 1249.22204071 -28.27849525 -16.06858462     6    227    0    0    0
H 1251.14234065 -30.99960326 -15.75807793     6    227    0    0    0
C 1253.14288936 -27.76648672 -14.53348663     2    227   231   232   233
H 1254.89067571 -28.77588700 -14.40461998     6    230    0    0    0
H 1253.47824836 -25.90919411 -15.22301596     6    230    0    0    0
C 1252.16031611 -27.42590444 -11.80007732     2    230   234   235   236
H 1250.50608030 -26.34785011 -11.51902809     6    233    0    0    0
H 1252.02220929 -29.17032187 -10.78631475     6    233    0    0    0
C 1254.25378458 -26.14932409 -10.32876745     1    233   237   238   239
H 1254.43724515 -24.22332371 -11.12276866     6    236    0    0    0
H 1256.01659601 -27.14595290 -10.58415226     6    236    0    0    0
H 1254.14864214 -26.00498406 -8.25927329     6    236    0    0    0
H 1241.49000331 -59.96631220 -13.43976130     6     241    0    0    0
C 1240.14186809 -59.07268113 -14.65815927     1     240    242    243    244
H 1238.43659441 -58.60325509 -13.57760256     6     241    0    0    0
H 1240.85973394 -57.28472393 -15.34877592     6     241    0    0    0
C 1239.35991537 -60.78011464 -16.85600559     2     241    245    246    247
H 1237.79101558 -61.93862106 -16.16330474     6     244    0    0    0
H 1238.33231903 -59.71229574 -18.21752533     6     244    0    0    0
C 1241.66112472 -62.31320529 -17.91446400     2     244    248   249   250
H 1241.24011223 -62.81362741 -19.78307517     6     247    0    0    0
H 1243.21460806 -61.03146779 -18.24823051     6     247    0    0    0
C 1242.76636754 -64.43647157 -16.15490864     2     247   251   252   253
H 1244.37563823 -65.20364326 -17.18054684     6    250    0    0    0
H 1243.34914867 -63.63504049 -14.24265058     6    250    0    0    0
C 1240.93299480 -66.70424206 -15.53011967     2    250   254   255   256
H 1239.66762274 -65.95986151 -14.20219126     6    253    0    0    0
H 1240.11356711 -67.54176475 -17.21336814     6    253    0    0    0
C 1242.40410981 -69.03969798 -14.26727781     2    253   257   258   259
H 1241.12910428 -70.63257058 -14.41286248     6    256    0    0    0
H 1244.27867701 -69.65133877 -15.20837220     6    256    0    0    0
C 1242.77936226 -68.72755424 -11.46074236     2    256   260   261   262
H 1243.76993261 -66.91914230 -11.22273494     6    259    0    0    0
H 1240.90572364 -68.60654691 -10.41080663     6    259    0    0    0
C 1244.42070332 -70.82665434 -10.26504053     2    259   263   264   265
H 1243.36835110 -72.69111693 -10.54723449     6    262    0    0    0
H 1246.44846210 -71.00787923 -10.92122179     6    262    0    0    0
C 1244.89188088 -70.54062109 -7.48770873     2    262   266   267   268
H 1245.98998013 -68.73529041 -7.14409411     6    265    0    0    0
H 1243.20465022 -70.32194428 -6.58667346     6    265    0    0    0
C 1246.13136085 -72.90082083 -6.26322542     2    265   269   270   271
H 1245.39228079 -74.61972125 -7.28258526     6    268    0    0    0
H 1248.21419446 -72.63769092 -6.46746474     6    268    0    0    0
C 1245.57729590 -73.18622994 -3.45911852     2    268   272   273   274
H 1246.02003309 -71.41118357 -2.48128103     6    271    0    0    0
H 1243.49386314 -73.42081447 -3.00208210     6    271    0    0    0
C 1247.04943540 -75.49355538 -2.31876296     1    271   275   276   277
H 1246.43068251 -77.37103028 -3.20516545     6    274    0    0    0
H 1246.26695407 -75.64318680 -0.26411072     6    274    0    0    0
H 1249.18068018 -75.30870049 -2.07526952     6    274    0    0    0
H 1236.37453492 -35.29346294 -30.90502822     6     279    0    0    0
C 1236.81372114 -36.52701668 -29.46722488     1     278    280    281    282
H 1235.87765735 -35.90572968 -27.73373686     6     279    0    0    0
H 1235.84228008 -38.37138951 -29.84432851     6     279    0    0    0
C 1239.59886261 -36.73957165 -28.91982864     2     279    283    284    285
H 1240.62061574 -36.87141753 -30.76373688     6     282    0    0    0
H 1240.25361567 -34.85672043 -28.11342551     6     282    0    0    0
C 1240.11811870 -38.91172250 -27.21467843     2     282    286   287   288
H 1239.31470817 -38.94609846 -25.32017546     6     285    0    0    0
H 1239.39492888 -40.61015912 -28.07997285     6     285    0    0    0
C 1243.05784484 -39.12243092 -26.97593858     2     285   289   290   291
H 1243.88599589 -39.09229413 -28.83054684     6    288    0    0    0
H 1243.68722710 -37.33138998 -26.09825968     6    288    0    0    0
C 1244.05121496 -41.34283763 -25.24090914     2    288   292   293   294
H 1243.32541770 -43.23995090 -25.74476229     6    291    0    0    0
H 1246.03480093 -41.28378770 -25.71237031     6    291    0    0    0
C 1243.56460136 -40.55357785 -22.56825424     2    291   295   296   297
H 1244.74980675 -39.07760428 -21.95286070     6    294    0    0    0
H 1241.70765222 -39.92042668 -22.37922624     6    294    0    0    0
C 1243.99873330 -42.83054440 -20.87735341     2    294   298   299   300

   18   -1830.4085321958      8.57E-09 Convergence criterion met
 Total energy in the final basis set = -1828.13513690
 Total job time:  17.23s(wall), 30.83s(cpu)
        *  Thank you very much for using Q-Chem.  Have a nice day.  *

User input: 2 of 2

                  Welcome to Q-Chem
     A Quantum Leap Into The Future Of Chemistry

 Q-Chem 5.4 (devel), Q-Chem, Inc., Pleasanton, CA (2021)

 E. Epifanovsky,  A. T. B. Gilbert,  Xintian Feng,  Joonho Lee,  Yuezhi Mao,
 N. Mardirossian,  P. Pokhilko,  A. White,  M. Wormit,  M. P. Coons,
 A. L. Dempwolff,  Zhengting Gan,  D. Hait,  P. R. Horn,  L. D. Jacobson,
 I. Kaliman,  J. Kussmann,  A. W. Lange,  Ka Un Lao,  D. S. Levine,  Jie Liu,
 S. C. McKenzie,  A. F. Morrison,  K. Nanda,  F. Plasser,  D. R. Rehn,
 M. L. Vidal,  Zhi-Qiang You,  Ying Zhu,  B. Alam,  B. Albrecht,
 A. Aldossary,  E. Alguire,  J. H. Andersen,  D. Barton,  K. Begam,  A. Behn,
 Y. A. Bernard,  E. J. Berquist,  H. Burton,  A. Carreras,  K. Carter-Fenk,
 R. Chakraborty,  A. D. Chien,  K. D. Closser,  V. Cofer-Shabica,
 S. Dasgupta,  Jia Deng,  M. de Wergifosse,  M. Diedenhofen,  Hainam Do,
 S. Ehlert,  Po-Tung Fang,  S. Fatehi,  Qingguo Feng,  T. Friedhoff,
 J. Gayvert,  Qinghui Ge,  G. Gidofalvi,  M. Goldey,  J. Gomes,
 C. Gonzalez-Espinoza,  S. Gulania,  A. Gunina,  M. W. D. Hanson-Heine,
 P. H. P. Harbach,  A. W. Hauser,  M. F. Herbst,  M. Hernandez Vera,
 M. Hodecker,  Z. C. Holden,  S. Houck,  Xunkun Huang,  Kerwin Hui,
 B. C. Huynh,  M. Ivanov,  Hyunjun Ji,  Hanjie Jiang,  B. Kaduk,  S. Kaehler,
 K. Khistyaev,  Jaehoon Kim,  P. Klunzinger,  Z. Koczor-Benda,
 Joong Hoon Koh,  D. Kosenkov,  L. Koulias,  T. Kowalczyk,  C. M. Krauter,
 K. Kue,  A. Kunitsa,  T. Kus,  A. Landau,  K. V. Lawler,  D. Lefrancois,
 S. Lehtola,  Rain Li,  Yi-Pei Li,  Jiashu Liang,  M. Liebenthal,
 Hung-Hsuan Lin,  You-Sheng Lin,  Fenglai Liu,  Kuan-Yu Liu,
 M. Loipersberger,  A. Luenser,  A. Manjanath,  P. Manohar,  E. Mansoor,
 S. F. Manzer,  Shan-Ping Mao,  A. V. Marenich,  T. Markovich,  S. Mason,
 S. A. Maurer,  P. F. McLaughlin,  M. F. S. J. Menger,  J.-M. Mewes,
 S. A. Mewes,  P. Morgante,  J. W. Mullinax,  K. J. Oosterbaan,  G. Paran,
 Alexander C. Paul,  Suranjan K. Paul,  F. Pavosevic,  Zheng Pei,  S. Prager,
 E. I. Proynov,  E. Ramos,  B. Rana,  A. E. Rask,  A. Rettig,  R. M. Richard,
 F. Rob,  E. Rossomme,  T. Scheele,  M. Scheurer,  M. Schneider,
 N. Sergueev,  S. M. Sharada,  W. Skomorowski,  D. W. Small,  C. J. Stein,
 Yu-Chuan Su,  E. J. Sundstrom,  Zhen Tao,  J. Thirman,  T. Tsuchimochi,
 N. M. Tubman,  S. P. Veccham,  O. Vydrov,  J. Wenzel,  J. Witte,  A. Yamada,
 Kun Yao,  S. Yeganeh,  S. R. Yost,  A. Zech,  Igor Ying Zhang,  Xing Zhang,
 Yu Zhang,  D. Zuev,  A. Aspuru-Guzik,  A. T. Bell,  N. A. Besley,
 K. B. Bravaya,  B. R. Brooks,  D. Casanova,  Jeng-Da Chai,  S. Coriani,
 C. J. Cramer,  A. E. DePrince, III,  R. A. DiStasio Jr.,  A. Dreuw,
 B. D. Dunietz,  T. R. Furlani,  W. A. Goddard III,  S. Grimme,
 S. Hammes-Schiffer,  T. Head-Gordon,  W. J. Hehre,  Chao-Ping Hsu,
 T.-C. Jagau,  Yousung Jung,  A. Klamt,  Jing Kong,  D. S. Lambrecht,
 WanZhen Liang,  N. J. Mayhall,  C. W. McCurdy,  J. B. Neaton,
 C. Ochsenfeld,  J. A. Parkhill,  R. Peverati,  V. A. Rassolov,  Yihan Shao,
 L. V. Slipchenko,  T. Stauch,  R. P. Steele,  J. E. Subotnik,
 A. J. W. Thom,  A. Tkatchenko,  D. G. Truhlar,  T. Van Voorhis,
 T. A. Wesolowski,  K. B. Whaley,  H. L. Woodcock III,  P. M. Zimmerman,
 S. Faraji,  P. M. W. Gill,  M. Head-Gordon,  J. M. Herbert,  A. I. Krylov

 Additional authors for Version 5.4.1:
 S. Kotaru,  Shaozhi Li,  Xiangyuan Li,  F. Matz,  A. Molle,  Haisheng Ren,
 Yingli Su,  Hung-Yi Tsai,  C. Utku,  Fang Wang

 Contributors to earlier versions of Q-Chem not listed above:
 R. D. Adamson,  B. Austin,  R. Baer,  J. Baker,  G. J. O. Beran,
 K. Brandhorst,  S. T. Brown,  E. F. C. Byrd,  A. K. Chakraborty,
 G. K. L. Chan,  Chun-Min Chang,  Yunqing Chen,  C.-L. Cheng,
 Siu Hung Chien,  D. M. Chipman,  D. L. Crittenden,  H. Dachsel,
 R. J. Doerksen,  A. D. Dutoi,  R. G. Edgar,  J. Fosso-Tande,
 L. Fusti-Molnar,  D. Ghosh,  A. Ghysels,  A. Golubeva-Zadorozhnaya,
 J. Gonthier,  M. S. Gordon,  S. R. Gwaltney,  G. Hawkins,  J. E. Herr,
 A. Heyden,  S. Hirata,  E. G. Hohenstein,  G. Kedziora,  F. J. Keil,
 C. Kelley,  Jihan Kim,  R. A. King,  R. Z. Khaliullin,  P. P. Korambath,
 W. Kurlancheek,  A. Laurent,  A. M. Lee,  M. S. Lee,  S. V. Levchenko,
 Ching Yeh Lin,  D. Liotard,  E. Livshits,  R. C. Lochan,  I. Lotan,
 L. A. Martinez-Martinez,  P. E. Maslen,  N. Nair,  D. P. O'Neill,
 D. Neuhauser,  E. Neuscamman,  C. M. Oana,  R. Olivares-Amaya,  R. Olson,
 T. M. Perrine,  B. Peters,  P. A. Pieniazek,  A. Prociuk,  Y. M. Rhee,
 J. Ritchie,  M. A. Rohrdanz,  E. Rosta,  N. J. Russ,  H. F. Schaefer III,
 M. W. Schmidt,  N. E. Schultz,  S. Sharma,  N. Shenvi,  C. D. Sherrill,
 A. C. Simmonett,  A. Sodt,  T. Stein,  D. Stuck,  K. S. Thanthiriwatte,
 V. Vanovschi,  L. Vogt,  Tao Wang,  A. Warshel,  M. A. Watson,
 C. F. Williams,  Q. Wu,  X. Xu,  Jun Yang,  W. Zhang,  Yan Zhao

 Please cite Q-Chem as follows:
 Y. Shao et al., Mol. Phys. 113, 184-215 (2015)
 DOI: 10.1080/00268976.2014.952696

 Q-Chem 5.4.1 for Intel X86 EM64T Linux

 Parts of Q-Chem use Armadillo 9.900.5 (Nocturnal Misbehaviour).
 http://arma.sourceforge.net/

 Q-Chem begins on Wed Jun 22 08:05:42 2022

 Host: p09r16n04.grace.hpc.yale.internal
0

     Scratch files written to /home/tl686/scratch60/qchem_dev/scratch/qchem69463//
 Processing $rem in /home/tl686/qchem_dev/qchem/config/preferences:
 Processing $rem in /home/tl686/.qchemrc:
Applying user defined connections for MM calculations
The previous job contains 0 fragments, simply inherited here

 Checking the input file for inconsistencies... 	...done.

--------------------------------------------------------------
User input:
--------------------------------------------------------------

$molecule
READ
$end

$qm_atoms
1:11
$end

$force_field_params
NumAtomTypes 3
AtomType -1   0.0238     3.11   0.2868
AtomType -2   0.07124    3.30   0.6597
AtomType -3  -0.0760     3.09   0.1434
$end

$rem
     JOBTYPE  freq
     METHOD   bp86
     BASIS    def2-msvp
     MAX_SCF_CYCLES   800
     INPUT_BOHR TRUE
     SYM_IGNORE TRUE
     SCF_GUESS     read
     user_connect            true
     qm_mm_interface         ONIOM
     force_field             oplsaa
$end

--------------------------------------------------------------

    4   -1830.4085321960      1.26E-09 Convergence criterion met
 Total energy in the final basis set = -1828.13513690

                    Orbital Energies (a.u.)
 --------------------------------------------------------------

 Alpha MOs
 -- Occupied --
******** -29.6506 -25.6075 -25.5999 -25.5936 -18.9102 -18.9011 -18.8927
-18.8906 -18.8194 -10.0774 -10.0635 -10.0633 -10.0500 -10.0468  -3.3409
 -2.1715  -2.1623  -2.1416  -1.0918  -1.0750  -1.0743  -1.0668  -0.8573
 -0.5963  -0.5419  -0.5351  -0.5296  -0.5248  -0.4706  -0.4604  -0.4581
 -0.4477  -0.4435  -0.4403  -0.4385  -0.4342  -0.4308  -0.4268  -0.4174
 -0.4134  -0.3718  -0.3210  -0.3184  -0.2879  -0.2642  -0.2401  -0.2349

          Ground-State Mulliken Net Atomic Charges

     Atom                 Charge (a.u.)
  ----------------------------------------
      1 Fe                   -0.332280
      2 C                     0.233429
      3 C                     0.203239
      4 C                     0.249932
      5 C                     0.220517
      6 C                     0.096270
      7 O                    -0.068965
      8 O                    -0.103435
      9 O                    -0.087345
     10 O                    -0.084919
     11 O                    -0.326443
  ----------------------------------------
  Sum of atomic charges =     0.000000

                    Cartesian Multipole Moments
 -----------------------------------------------------------------
    Charge (ESU x 10^10)
                -0.0000
    Dipole Moment (Debye)
         X      -2.3987642236      Y       0.8415778763      Z      -1.4584173268
       Tot       2.9307514773
    Quadrupole Moments (Debye-Ang)
        XX   -3299.2642     XY     645.6209     YY    -122.0326
        XZ    -942.8495     YZ      33.3353     ZZ     -19.9888

 Frequency:      -113.95                 -96.37                 -49.45
 Force Cnst:      0.1250                 0.0898                 0.0230
 Red. Mass:      16.3382                16.4143                15.9622
 IR Intens:        0.000                  0.000                  0.000
 Frequency:       -46.19                  59.49                  85.48
 Force Cnst:      0.0199                 0.0353                 0.0685
 Red. Mass:      15.8428                16.9302                15.9123
 IR Intens:        0.000                  0.000                  0.000
 Frequency:        98.44                 110.77                 305.25
 Force Cnst:      0.0901                 0.1159                 0.7013
 Red. Mass:      15.7868                16.0282                12.7749
 IR Intens:        0.000                  0.000                  0.000
 Frequency:       327.25                 372.94                 384.82
 Force Cnst:      0.7999                 1.1394                 1.1891
 Red. Mass:      12.6776                13.9045                13.6283
 IR Intens:        0.000                  0.000                  0.000
 Frequency:       423.48                 445.54                 468.38
 Force Cnst:      1.3728                 1.6925                 1.7998
 Red. Mass:      12.9924                14.4715                13.9241
 IR Intens:        0.000                  0.000                  0.000
 Frequency:       497.29                 509.44                 560.51
 Force Cnst:      1.8516                 1.9296                 2.8286
 Red. Mass:      12.7082                12.6196                15.2811
 IR Intens:        0.000                  0.000                  0.000
 Frequency:       576.98                 587.23                 676.24
 Force Cnst:      2.8418                 3.7416                 3.7763
 Red. Mass:      14.4882                18.4158                14.0158
 IR Intens:        0.000                  0.000                  0.000
 Frequency:       686.53                1037.35                2050.41
 Force Cnst:      3.9623                 9.2577                33.0787
 Red. Mass:      14.2683                14.6016                13.3541
 IR Intens:        0.000                  0.000                  0.000
 Frequency:      2072.76                2160.53                2213.38
 Force Cnst:     33.7285                36.7057                38.4717
 Red. Mass:      13.3245                13.3463                13.3284
 IR Intens:        0.000                  0.000                  0.000

 STANDARD THERMODYNAMIC QUANTITIES AT   298.15 K  AND     1.00 ATM

   This Molecule has  4 Imaginary Frequencies
   Zero point vibrational energy:       23.889 kcal/mol

   Atom    1 Element Fe Has Mass   55.93490
   Atom    2 Element C  Has Mass   12.00000
   Atom    3 Element C  Has Mass   12.00000
   Atom    4 Element C  Has Mass   12.00000
   Atom    5 Element C  Has Mass   12.00000
   Atom    6 Element C  Has Mass   12.00000
   Atom    7 Element O  Has Mass   15.99491
   Atom    8 Element O  Has Mass   15.99491
   Atom    9 Element O  Has Mass   15.99491
   Atom   10 Element O  Has Mass   15.99491
   Atom   11 Element O  Has Mass   15.99491
   Molecular Mass:   195.909450 amu
   Principal axes and moments of inertia in amu*Bohr^2:
                             1           2           3
    Eigenvalues --     1938.18259  2244.33943  2286.25086
          X               0.74125    -0.34265     0.57718
          Y               0.61959     0.68003    -0.39200
          Z              -0.25818     0.64818     0.71638
   Rotational Symmetry Number is   1
   The Molecule is an Asymmetric Top
   Translational Enthalpy:        0.889 kcal/mol
   Rotational Enthalpy:           0.889 kcal/mol
   Vibrational Enthalpy:         27.990 kcal/mol
   gas constant (RT):             0.592 kcal/mol
   Translational Entropy:        41.722  cal/mol.K
   Rotational Entropy:           30.676  cal/mol.K
   Vibrational Entropy:          25.684  cal/mol.K

   Total Enthalpy:               30.360 kcal/mol
   Total Entropy:                98.082  cal/mol.K

 Total job time:  121.73s(wall), 240.48s(cpu)
        *  Thank you very much for using Q-Chem.  Have a nice day.  *
