 Q-Chem 5.4 (devel), Q-Chem, Inc., Pleasanton, CA (2021)
 Q-Chem 5.4.1 for Intel X86 EM64T Linux

User input:
--------------------------------------------------------------
$molecule
0   1
 Fe -96.18502821 -56.64536053 -55.63325149    -1  0   0   0   0
C -93.33654043 -54.63998876 -55.48259127    -2  0   0   0   0
C -99.19338263 -58.49628666 -55.94497228    -2  0   0   0   0
C -98.21907352 -54.10226635 -54.95296508    -2  0   0   0   0
C -95.35370925 -56.75604631 -58.93740483    -2  0   0   0   0
C -95.00133952 -58.30433885 -52.77950655    -2  0   0   0   0
O -91.63486377 -53.54242598 -55.42005224    -3  0   0   0   0
O -101.13166969 -59.36694370 -56.11153030    -3  0   0   0   0
O -99.36883740 -52.21835102 -54.46409878    -3  0   0   0   0
O -95.14616923 -56.34816446 -61.13391843    -3  0   0   0   0
O -94.11552775 -59.63072611 -51.15786810    -3  0   0   0   0
H -73.84491767 -44.12140698 -55.62572381      6     13    0    0    0
C -72.47767107 -43.28959699 -56.96738716     1     12    14    15    16
H -71.70374716 -41.57125545 -56.16536524     6     13    0    0    0
H -70.88466890 -44.53985602 -57.14432516     6     13    0    0    0
C -73.69808024 -42.74165943 -59.59245420     2     13    17    18    19
H -75.07478958 -41.38269039 -59.45637298     6     16    0    0    0
H -72.47411481 -41.94020949 -60.97723271     6     16    0    0    0
C -75.08206310 -44.99416326 -60.69887887     2     16    20   21   22
H -73.75759704 -46.56645912 -60.68604306     6     19    0    0    0
H -76.36612153 -45.41635596 -59.21714396     6     19    0    0    0
C -76.08391675 -44.43034237 -63.48263249     2     19   23   24   25
H -77.20241303 -42.64504157 -63.57569808     6    22    0    0    0
H -74.55414092 -44.11626026 -64.72838767     6    22    0    0    0
C -77.57698601 -46.68843733 -64.47346545     2    22   26   27   28
H -76.30157833 -48.29004668 -64.55770207     6    25    0    0    0
H -79.18085318 -47.17940539 -63.27728222     6    25    0    0    0
C -78.56578941 -46.56274542 -67.21673009     2    25   29   30   31
H -79.60202424 -44.77275705 -67.53833424     6    28    0    0    0
H -76.77379451 -46.73157208 -68.30252851     6    28    0    0    0
C -80.49401223 -48.67533949 -67.84771946     2    28   32   33   34
H -79.66857113 -50.53368374 -67.40438600     6    31    0    0    0
H -82.05894790 -48.51648969 -66.52031057     6    31    0    0    0
C -81.18923974 -48.66744441 -70.70631342     2    31   35   36   37
H -81.94891897 -47.02896965 -71.42296828     6    34    0    0    0
H -79.50051483 -49.17018483 -71.74027518     6    34    0    0    0
C -82.86784682 -50.74732201 -71.48593147     2    34   38   39   40
H -81.92146236 -52.41614280 -70.60859006     6    37    0    0    0
H -84.63558410 -50.60706369 -70.47242426     6    37    0    0    0
C -83.39799411 -51.11531849 -74.39601970     2    37   41   42   43
H -84.52204348 -49.55292092 -75.03404421     6    40    0    0    0
H -81.71282409 -51.35838788 -75.47677330     6    40    0    0    0
C -85.02877404 -53.38407901 -74.68701742     2    40   44   45   46
H -84.10872596 -55.09368556 -73.87913028     6    43    0    0    0
H -86.74833869 -53.38033927 -73.61616871     6    43    0    0    0
C -85.57826669 -53.85585660 -77.58240671     1    43   47   48   49
H -86.46909603 -52.21426806 -78.30072735     6    46    0    0    0
H -87.07394239 -55.36177096 -77.63528208     6    46    0    0    0
H -83.90654170 -54.29154621 -78.80587803     6    46    0    0    0
H -84.91418519 -58.44421286 -61.58889515     6     51    0    0    0
C -85.82551473 -58.75665844 -63.36290358     1     50    52    53    54
H -85.47027059 -60.85703225 -63.73285296     6     51    0    0    0
H -87.82750269 -58.21378484 -63.45634379     6     51    0    0    0
C -84.18468319 -57.34312999 -65.17139102     2     51    55    56    57
H -84.45204335 -55.25906468 -65.07357750     6     54    0    0    0
H -82.25589247 -57.70565814 -64.99157956     6     54    0    0    0
C -84.79864158 -58.05756617 -67.96753794     2     54    58   59   60
H -86.71537526 -58.78374527 -68.14334592     6     57    0    0    0
H -84.50315234 -56.36937056 -69.08806779     6     57    0    0    0
C -83.11242745 -60.13459447 -68.93999927     2     57   61   62   63
H -81.36681661 -59.41343534 -69.37537937     6    60    0    0    0
H -82.93603769 -61.52323245 -67.45299035     6    60    0    0    0
C -84.30137637 -61.25081254 -71.41355689     2    60   64   65   66
H -85.95788707 -62.24153036 -70.98524533     6    63    0    0    0
H -84.61330216 -59.55188631 -72.84500878     6    63    0    0    0
C -82.54584842 -63.25006728 -72.71593131     2    63   67   68   69
H -83.17120660 -63.63552333 -74.72340588     6    66    0    0    0
H -80.66170942 -62.52890773 -73.27159346     6    66    0    0    0
C -82.41853493 -65.62567991 -71.29518279     2    66   70   71   72
H -81.47360097 -65.33060229 -69.56377086     6    69    0    0    0
H -84.20076116 -66.22566793 -70.82870346     6    69    0    0    0
C -80.96661699 -67.58721496 -72.94047767     2    69   73   74   75
H -82.13226667 -68.29168678 -74.49141805     6    72    0    0    0
H -79.34609431 -66.62821209 -73.79660711     6    72    0    0    0
C -80.27504023 -69.78736349 -71.27227560     2    72   76   77   78
H -79.32294021 -69.03717971 -69.62709562     6    75    0    0    0
H -81.92509563 -70.78783948 -70.48303690     6    75    0    0    0
C -78.45812026 -71.66477719 -72.52892024     2    75   79   80   81
H -79.40794181 -72.41874607 -74.32317473     6    78    0    0    0
H -76.67886818 -70.75012619 -73.10124639     6    78    0    0    0
C -77.85061319 -73.91870347 -70.62677834     2    78   82   83   84
H -76.97260825 -73.10366963 -68.94819301     6    81    0    0    0
H -79.49251994 -74.78382495 -69.88026696     6    81    0    0    0
C -76.27795195 -76.01971779 -71.81454585     1    81   85   86   87
H -75.73510925 -77.41784471 -70.51930579     6    84    0    0    0
H -74.59807204 -75.49260764 -72.61098875     6    84    0    0    0
H -77.32537382 -76.93938767 -73.52996782     6    84    0    0    0
H -83.49998834 -29.88116388 -84.02046520     6     89    0    0    0
C -83.14463833 -30.63610838 -85.85366439     1     88    90    91    92
H -84.94164794 -30.91079812 -86.78816365     6     89    0    0    0
H -81.95682009 -29.25442201 -86.89582592     6     89    0    0    0
C -81.65071106 -33.14043364 -85.26036618     2     89    93    94    95
H -79.90640919 -32.68447107 -84.49005322     6     92    0    0    0
H -82.68194101 -34.21632360 -83.88576376     6     92    0    0    0
C -80.78376615 -34.77143837 -87.57116354     2     92    96   97   98
H -82.42787450 -34.68023289 -88.86755741     6     95    0    0    0
H -79.24181156 -33.83430251 -88.55076224     6     95    0    0    0
C -80.06733237 -37.45012860 -86.65745020     2     95   99   100   101
H -78.77599282 -37.04586605 -85.03733577     6    98    0    0    0
H -81.84600201 -38.32186038 -86.02121632     6    98    0    0    0
C -78.75557985 -38.90193522 -88.74071443     2    98   102   103   104
H -79.95243031 -39.09794225 -90.48355708     6    101    0    0    0
H -76.87015632 -38.04893730 -89.11012733     6    101    0    0    0
C -78.18804516 -41.52959439 -87.90840760     2    101   105   106   107
H -76.73045253 -41.48207263 -86.36062131     6    104    0    0    0
H -79.94625003 -42.32659540 -87.19793300     6    104    0    0    0
C -77.60634791 -43.57675104 -89.91841416     2    104   108   109   110
H -79.28702761 -43.63232751 -91.00680123     6    107    0    0    0
H -76.06740804 -42.97983492 -91.08569626     6    107    0    0    0
C -77.30140163 -46.26990048 -88.67783282     2    107   111   112   113
H -75.80107383 -46.18598957 -87.22425460     6    110    0    0    0
H -78.94071781 -46.85215833 -87.59456593     6    110    0    0    0
C -76.80268803 -48.25378331 -90.64890053     2    110   114   115   116
H -78.46035085 -49.21901801 -91.39851517     6    113    0    0    0
H -76.22404703 -47.46531637 -92.48582576     6    113    0    0    0
C -74.77334404 -50.06311568 -89.55834047     2    113   117   118   119
H -73.35963258 -48.85539472 -88.56599196     6    116    0    0    0
H -75.48673234 -51.22207720 -88.03816358     6    116    0    0    0
C -73.54537055 -51.50699409 -91.78894394     2    116   120   121   122
H -75.12047544 -52.30190626 -92.91951643     6    119    0    0    0
H -72.24061596 -50.17889168 -92.79841189     6    119    0    0    0
C -72.00488301 -53.77156226 -91.03970660     1    119   123   124   125
H -71.84907901 -54.88733091 -92.81034207     6    122    0    0    0
H -73.26528888 -54.93511165 -89.83973908     6    122    0    0    0
H -70.26422128 -53.47585391 -89.99079086     6    122    0    0    0
H -110.22144510 -38.70821274 -80.43773668     6     127    0    0    0
C -110.26045812 -39.92595526 -78.73844308     1     126    128    129    130
H -112.26000411 -40.05993173 -78.10252599     6     127    0    0    0
H -109.49995836 -41.91943892 -79.01753307     6     127    0    0    0
C -108.58216853 -38.66658995 -76.63008066     2     127    131    132    133
H -106.70415995 -37.97974353 -77.26809708     6     130    0    0    0
H -109.63028187 -36.96375715 -75.74354390     6     130    0    0    0
C -107.92410172 -40.62391054 -74.46614020     2     130    134   135   136
H -109.53687379 -41.92983207 -74.03809892     6     133    0    0    0
H -106.24638529 -41.61707494 -75.16622863     6     133    0    0    0
C -107.26140156 -39.39293259 -71.98104124     2     133   137   138   139
H -105.53418698 -38.32918499 -72.26446206     6    136    0    0    0
H -108.83669223 -38.23165579 -71.46314893     6    136    0    0    0
C -106.69838433 -41.25165792 -69.90145131     2    136   140   141   142
H -108.28871974 -42.53377443 -69.65800904     6    139    0    0    0
H -105.07917988 -42.46004337 -70.37536320     6    139    0    0    0
C -106.07324123 -39.80724026 -67.36010703     2    139   143   144   145
H -104.74039284 -38.21777588 -67.63726004     6    142    0    0    0
H -107.86715109 -39.07545870 -66.77493735     6    142    0    0    0
C -105.34540930 -41.58509792 -65.06219208     2    142   146   147   148
H -106.70732421 -42.94556484 -64.63743810     6    145    0    0    0
H -103.81249840 -42.79257825 -65.52121142     6    145    0    0    0
C -104.81533346 -39.97132934 -62.66541371     2    145   149   150   151
H -103.29160757 -38.68333240 -63.26885607     6    148    0    0    0
H -106.36130079 -38.76749235 -62.11464838     6    148    0    0    0
C -104.25111741 -41.58290843 -60.33605714     2    148   152   153   154
H -105.89279000 -42.77927485 -59.81450880     6    151    0    0    0
H -102.69511828 -42.73991665 -60.70322851     6    151    0    0    0
C -103.21958817 -40.19704104 -58.01255643     2    151   155   156   157
H -102.85196065 -41.65594187 -56.65313746     6    154    0    0    0
H -101.26453977 -39.65044575 -58.57767209     6    154    0    0    0
C -104.74761045 -38.05383148 -56.70118214     2    154   158   159   160
H -105.00988283 -36.31190813 -57.87040905     6    157    0    0    0
H -106.70400599 -38.48287730 -56.20970771     6    157    0    0    0
C -103.43283418 -37.22094283 -54.37792235     1    157   161   162   163
H -103.55467669 -38.50146648 -52.82865020     6    160    0    0    0
H -104.03731185 -35.33016051 -53.87367893     6    160    0    0    0
H -101.41949914 -36.91905376 -54.59939546     6    160    0    0    0
H -107.15339019 -61.89631587 -90.90525598     6     165    0    0    0
C -107.86496073 -60.77251375 -89.33190643     1     164    166    167    168
H -109.37936835 -61.93122175 -88.46620225     6     165    0    0    0
H -106.37563740 -60.80546677 -87.94845015     6     165    0    0    0
C -108.94929373 -58.12616838 -90.30278998     2     165    169    170    171
H -107.38058631 -56.89970050 -90.99892581     6     168    0    0    0
H -110.26967918 -58.25171883 -91.77978105     6     168    0    0    0
C -110.14512231 -56.61013412 -88.10703957     2     168    172   173   174
H -111.88449405 -57.54689107 -87.68032851     6     171    0    0    0
H -108.79955975 -56.57061622 -86.52173602     6     171    0    0    0
C -110.39580303 -53.80392290 -88.64582994     2     171   175   176   177
H -108.51679161 -52.88508710 -89.22839343     6    174    0    0    0
H -111.42586444 -53.31074689 -90.40093471     6    174    0    0    0
C -111.55882584 -52.39771163 -86.48315186     2    174   178   179   180
H -113.33150522 -53.24966935 -85.87376809     6    177    0    0    0
H -110.42494909 -52.50485241 -84.75232081     6    177    0    0    0
C -112.03156368 -49.56941216 -87.04432621     2    177   181   182   183
H -110.14606578 -48.74546278 -87.14824379     6    180    0    0    0
H -112.99736628 -49.41715591 -88.74368372     6    180    0    0    0
C -113.29291350 -48.37940962 -84.92559902     2    180   184   185   186
H -115.15998000 -49.31370085 -84.77389339     6    183    0    0    0
H -112.47135320 -49.09004580 -83.27037912     6    183    0    0    0
C -113.49819478 -45.59136397 -84.87665192     2    183   187   188   189
H -111.55191803 -44.86154149 -84.50634810     6    186    0    0    0
H -114.37811572 -45.08822184 -86.72560792     6    186    0    0    0
C -115.20838771 -44.63159315 -82.81111021     2    186   190   191   192
H -117.17983119 -45.24949505 -83.17687611     6    189    0    0    0
H -114.78132942 -45.42680811 -80.96449459     6    189    0    0    0
C -115.63262746 -41.81652168 -82.75761558     2    189   193   194   195
H -113.90559880 -40.82938957 -82.64968277     6    192    0    0    0
H -116.34367750 -41.46001668 -84.63260928     6    192    0    0    0
C -117.25217761 -40.89066039 -80.45905465     2    192   196   197   198
H -116.64663605 -41.93045270 -78.91860088     6    195    0    0    0
H -116.83069815 -38.87222153 -79.85691130     6    195    0    0    0
C -120.05598370 -41.32638743 -81.03673984     1    195   199   200   201
H -121.19807016 -41.42266030 -79.34300267     6    198    0    0    0
H -120.18625683 -43.25640717 -81.75525968     6    198    0    0    0
H -120.98589453 -39.97116798 -82.19568609     6    198    0    0    0
H -105.86008499 -62.58178487 -78.49283208     6     203    0    0    0
C -104.80878013 -63.06289961 -80.28891452     1     202    204    205    206
H -104.76816946 -61.24184616 -81.47687398     6     203    0    0    0
H -102.91919481 -63.28553699 -79.66848848     6     203    0    0    0
C -105.85674314 -65.25178574 -81.86770896     2     203    207    208    209
H -107.89647925 -65.03115397 -81.90610218     6     206    0    0    0
H -105.57996315 -64.85698510 -83.91591661     6     206    0    0    0
C -104.70982834 -67.82281573 -81.19880100     2     206    210   211   212
H -103.42773788 -68.51188093 -82.60045598     6     209    0    0    0
H -103.66953511 -67.70182045 -79.48564397     6     209    0    0    0
C -106.77030205 -69.75376504 -80.54462149     2     209   213   214   215
H -107.76320610 -68.63055446 -79.11243240     6    212    0    0    0
H -108.24585099 -69.79174432 -82.01824846     6    212    0    0    0
C -106.19281382 -72.52988952 -79.75807916     2    212   216   217   218
H -105.69617084 -73.41208052 -81.50377591     6    215    0    0    0
H -104.59456548 -72.53882701 -78.42949271     6    215    0    0    0
C -108.70839033 -73.80461383 -78.76448775     2    215   219   220   221
H -109.38065647 -72.41706258 -77.29220700     6    218    0    0    0
H -109.94741201 -73.92085836 -80.37525045     6    218    0    0    0
C -108.05353338 -76.32935069 -77.55187036     2    218   222   223   224
H -107.37037573 -77.49553684 -79.10803119     6    221    0    0    0
H -106.55057995 -76.10068039 -76.13998237     6    221    0    0    0
C -110.31550826 -77.76795281 -76.40275893     2    221   225   226   227
H -111.58706379 -76.66669119 -75.12440988     6    224    0    0    0
H -111.59636348 -78.19109699 -77.86030724     6    224    0    0    0
C -109.74057285 -80.16033806 -74.84774466     2    224   228   229   230
H -108.14700986 -81.29089605 -75.47675304     6    227    0    0    0
H -109.23659951 -79.81147465 -72.86683531     6    227    0    0    0
C -112.04171850 -81.95928485 -74.63819917     2    227   231   232   233
H -113.50792129 -80.49767086 -74.14322639     6    230    0    0    0
H -112.43815463 -82.97655459 -76.45795609     6    230    0    0    0
C -112.17100276 -83.97455716 -72.64491495     2    230   234   235   236
H -111.51714013 -85.76560922 -73.56739524     6    233    0    0    0
H -110.82110548 -83.63688447 -71.03217101     6    233    0    0    0
C -114.82207914 -84.48033051 -71.96710373     1    233   237   238   239
H -114.91239239 -85.95906424 -70.52002180     6    236    0    0    0
H -116.07608695 -84.94794046 -73.63141124     6    236    0    0    0
H -116.00399326 -82.90321330 -71.23331958     6    236    0    0    0
H -82.77111265 -69.91749671 -83.89979537     6     241    0    0    0
C -81.32493374 -69.12876614 -82.67922387     1     240    242    243    244
H -81.34698545 -67.19953655 -83.23889641     6     241    0    0    0
H -81.90006371 -69.12543928 -80.70661748     6     241    0    0    0
C -78.79939960 -70.39231203 -82.79974077     2     241    245    246    247
H -79.11752303 -72.40371892 -82.52823784     6     244    0    0    0
H -77.99149080 -70.15695304 -84.72603973     6     244    0    0    0
C -76.93814266 -69.53946201 -80.72110851     2     244    248   249   250
H -76.64098351 -67.45615331 -80.49873343     6     247    0    0    0
H -77.76847449 -69.72485685 -78.82120081     6     247    0    0    0
C -74.59011598 -71.17099642 -80.75418252     2     247   251   252   253
H -74.26764294 -71.84436545 -82.64006313     6    250    0    0    0
H -73.09069061 -69.71583339 -80.45036174     6    250    0    0    0
C -74.12979754 -73.21005671 -78.79532079     2    250   254   255   256
H -74.72033869 -72.63969118 -76.98491830     6    253    0    0    0
H -75.53038202 -74.77735736 -79.29188348     6    253    0    0    0
C -71.39966012 -74.07352660 -79.07290421     2    253   257   258   259
H -70.78787733 -74.45710071 -81.00050681     6    256    0    0    0
H -70.20047171 -72.52758472 -78.37854945     6    256    0    0    0
C -70.89684046 -76.47743819 -77.56199206     2    256   260   261   262
H -71.67529619 -76.44973765 -75.65520765     6    259    0    0    0
H -71.74946726 -78.20170986 -78.47313101     6    259    0    0    0
C -68.16189614 -77.30036696 -77.30744866     2    259   263   264   265
H -67.26458346 -77.55273665 -79.21949959     6    262    0    0    0
H -67.37824248 -75.79707529 -76.27516689     6    262    0    0    0
C -67.59966199 -79.81724963 -75.96686980     2    262   266   267   268
H -68.64957514 -80.24126011 -74.06720799     6    265    0    0    0
H -68.19911991 -81.50817623 -77.04163904     6    265    0    0    0
C -64.76082388 -79.94377155 -75.25291168     2    265   269   270   271
H -63.65923023 -78.98350137 -76.71855289     6    268    0    0    0
H -64.74626604 -78.98021087 -73.53674979     6    268    0    0    0
C -63.76762926 -82.57845445 -74.98996429     2    268   272   273   274
H -64.90549321 -83.26176471 -73.26190864     6    271    0    0    0
H -64.29481310 -83.74799308 -76.64350042     6    271    0    0    0
C -60.84278557 -82.77649440 -74.59799038     1    271   275   276   277
H -59.75737853 -82.29374886 -76.29353217     6    274    0    0    0
H -60.52155108 -84.74257998 -73.97927143     6    274    0    0    0
H -60.32337279 -81.69365387 -72.94730277     6    274    0    0    0
H -99.71848614 -64.40288558 -91.26739620     6     279    0    0    0
C -99.49545528 -62.65737674 -90.18308418     1     278    280    281    282
H -97.64751562 -61.92702632 -90.52618641     6     279    0    0    0
H -100.89795466 -61.32655513 -90.72057723     6     279    0    0    0
C -99.82798596 -63.42843404 -87.40391870     2     279    283    284    285
H -98.91209579 -61.97549116 -86.31832155     6     282    0    0    0
H -101.80818795 -63.58335776 -86.89250529     6     282    0    0    0
C -98.11229448 -65.61486236 -86.48600537     2     282    286   287   288
H -98.93151515 -67.49868498 -86.95596990     6     285    0    0    0
H -96.42405022 -65.59968424 -87.61108604     6     285    0    0    0
C -97.57537418 -65.35986816 -83.65397439     2     285   289   290   291
H -96.71170305 -63.59122471 -83.41597063     6    288    0    0    0
H -99.21996303 -65.09492897 -82.47836965     6    288    0    0    0
C -95.67357907 -67.31119057 -82.79502391     2    288   292   293   294
H -94.16394826 -67.51053001 -84.16451634     6    291    0    0    0
H -94.84484477 -66.84233856 -80.91022322     6    291    0    0    0
C -96.92300472 -69.87897048 -82.41339505     2    291   295   296   297
H -98.24589850 -69.55765830 -80.79091914     6    294    0    0    0
H -97.95326238 -70.44195995 -84.08819113     6    294    0    0    0
C -94.88993097 -71.91301193 -81.90524707     2    294   298   299   300

   17   -1830.4901946702      6.02E-09 Convergence criterion met
 Total energy in the final basis set = -1828.29005224
 Total job time:  16.92s(wall), 29.95s(cpu)
        *  Thank you very much for using Q-Chem.  Have a nice day.  *

User input: 2 of 2

                  Welcome to Q-Chem
     A Quantum Leap Into The Future Of Chemistry

 Q-Chem 5.4 (devel), Q-Chem, Inc., Pleasanton, CA (2021)

 E. Epifanovsky,  A. T. B. Gilbert,  Xintian Feng,  Joonho Lee,  Yuezhi Mao,
 N. Mardirossian,  P. Pokhilko,  A. White,  M. Wormit,  M. P. Coons,
 A. L. Dempwolff,  Zhengting Gan,  D. Hait,  P. R. Horn,  L. D. Jacobson,
 I. Kaliman,  J. Kussmann,  A. W. Lange,  Ka Un Lao,  D. S. Levine,  Jie Liu,
 S. C. McKenzie,  A. F. Morrison,  K. Nanda,  F. Plasser,  D. R. Rehn,
 M. L. Vidal,  Zhi-Qiang You,  Ying Zhu,  B. Alam,  B. Albrecht,
 A. Aldossary,  E. Alguire,  J. H. Andersen,  D. Barton,  K. Begam,  A. Behn,
 Y. A. Bernard,  E. J. Berquist,  H. Burton,  A. Carreras,  K. Carter-Fenk,
 R. Chakraborty,  A. D. Chien,  K. D. Closser,  V. Cofer-Shabica,
 S. Dasgupta,  Jia Deng,  M. de Wergifosse,  M. Diedenhofen,  Hainam Do,
 S. Ehlert,  Po-Tung Fang,  S. Fatehi,  Qingguo Feng,  T. Friedhoff,
 J. Gayvert,  Qinghui Ge,  G. Gidofalvi,  M. Goldey,  J. Gomes,
 C. Gonzalez-Espinoza,  S. Gulania,  A. Gunina,  M. W. D. Hanson-Heine,
 P. H. P. Harbach,  A. W. Hauser,  M. F. Herbst,  M. Hernandez Vera,
 M. Hodecker,  Z. C. Holden,  S. Houck,  Xunkun Huang,  Kerwin Hui,
 B. C. Huynh,  M. Ivanov,  Hyunjun Ji,  Hanjie Jiang,  B. Kaduk,  S. Kaehler,
 K. Khistyaev,  Jaehoon Kim,  P. Klunzinger,  Z. Koczor-Benda,
 Joong Hoon Koh,  D. Kosenkov,  L. Koulias,  T. Kowalczyk,  C. M. Krauter,
 K. Kue,  A. Kunitsa,  T. Kus,  A. Landau,  K. V. Lawler,  D. Lefrancois,
 S. Lehtola,  Rain Li,  Yi-Pei Li,  Jiashu Liang,  M. Liebenthal,
 Hung-Hsuan Lin,  You-Sheng Lin,  Fenglai Liu,  Kuan-Yu Liu,
 M. Loipersberger,  A. Luenser,  A. Manjanath,  P. Manohar,  E. Mansoor,
 S. F. Manzer,  Shan-Ping Mao,  A. V. Marenich,  T. Markovich,  S. Mason,
 S. A. Maurer,  P. F. McLaughlin,  M. F. S. J. Menger,  J.-M. Mewes,
 S. A. Mewes,  P. Morgante,  J. W. Mullinax,  K. J. Oosterbaan,  G. Paran,
 Alexander C. Paul,  Suranjan K. Paul,  F. Pavosevic,  Zheng Pei,  S. Prager,
 E. I. Proynov,  E. Ramos,  B. Rana,  A. E. Rask,  A. Rettig,  R. M. Richard,
 F. Rob,  E. Rossomme,  T. Scheele,  M. Scheurer,  M. Schneider,
 N. Sergueev,  S. M. Sharada,  W. Skomorowski,  D. W. Small,  C. J. Stein,
 Yu-Chuan Su,  E. J. Sundstrom,  Zhen Tao,  J. Thirman,  T. Tsuchimochi,
 N. M. Tubman,  S. P. Veccham,  O. Vydrov,  J. Wenzel,  J. Witte,  A. Yamada,
 Kun Yao,  S. Yeganeh,  S. R. Yost,  A. Zech,  Igor Ying Zhang,  Xing Zhang,
 Yu Zhang,  D. Zuev,  A. Aspuru-Guzik,  A. T. Bell,  N. A. Besley,
 K. B. Bravaya,  B. R. Brooks,  D. Casanova,  Jeng-Da Chai,  S. Coriani,
 C. J. Cramer,  A. E. DePrince, III,  R. A. DiStasio Jr.,  A. Dreuw,
 B. D. Dunietz,  T. R. Furlani,  W. A. Goddard III,  S. Grimme,
 S. Hammes-Schiffer,  T. Head-Gordon,  W. J. Hehre,  Chao-Ping Hsu,
 T.-C. Jagau,  Yousung Jung,  A. Klamt,  Jing Kong,  D. S. Lambrecht,
 WanZhen Liang,  N. J. Mayhall,  C. W. McCurdy,  J. B. Neaton,
 C. Ochsenfeld,  J. A. Parkhill,  R. Peverati,  V. A. Rassolov,  Yihan Shao,
 L. V. Slipchenko,  T. Stauch,  R. P. Steele,  J. E. Subotnik,
 A. J. W. Thom,  A. Tkatchenko,  D. G. Truhlar,  T. Van Voorhis,
 T. A. Wesolowski,  K. B. Whaley,  H. L. Woodcock III,  P. M. Zimmerman,
 S. Faraji,  P. M. W. Gill,  M. Head-Gordon,  J. M. Herbert,  A. I. Krylov

 Additional authors for Version 5.4.1:
 S. Kotaru,  Shaozhi Li,  Xiangyuan Li,  F. Matz,  A. Molle,  Haisheng Ren,
 Yingli Su,  Hung-Yi Tsai,  C. Utku,  Fang Wang

 Contributors to earlier versions of Q-Chem not listed above:
 R. D. Adamson,  B. Austin,  R. Baer,  J. Baker,  G. J. O. Beran,
 K. Brandhorst,  S. T. Brown,  E. F. C. Byrd,  A. K. Chakraborty,
 G. K. L. Chan,  Chun-Min Chang,  Yunqing Chen,  C.-L. Cheng,
 Siu Hung Chien,  D. M. Chipman,  D. L. Crittenden,  H. Dachsel,
 R. J. Doerksen,  A. D. Dutoi,  R. G. Edgar,  J. Fosso-Tande,
 L. Fusti-Molnar,  D. Ghosh,  A. Ghysels,  A. Golubeva-Zadorozhnaya,
 J. Gonthier,  M. S. Gordon,  S. R. Gwaltney,  G. Hawkins,  J. E. Herr,
 A. Heyden,  S. Hirata,  E. G. Hohenstein,  G. Kedziora,  F. J. Keil,
 C. Kelley,  Jihan Kim,  R. A. King,  R. Z. Khaliullin,  P. P. Korambath,
 W. Kurlancheek,  A. Laurent,  A. M. Lee,  M. S. Lee,  S. V. Levchenko,
 Ching Yeh Lin,  D. Liotard,  E. Livshits,  R. C. Lochan,  I. Lotan,
 L. A. Martinez-Martinez,  P. E. Maslen,  N. Nair,  D. P. O'Neill,
 D. Neuhauser,  E. Neuscamman,  C. M. Oana,  R. Olivares-Amaya,  R. Olson,
 T. M. Perrine,  B. Peters,  P. A. Pieniazek,  A. Prociuk,  Y. M. Rhee,
 J. Ritchie,  M. A. Rohrdanz,  E. Rosta,  N. J. Russ,  H. F. Schaefer III,
 M. W. Schmidt,  N. E. Schultz,  S. Sharma,  N. Shenvi,  C. D. Sherrill,
 A. C. Simmonett,  A. Sodt,  T. Stein,  D. Stuck,  K. S. Thanthiriwatte,
 V. Vanovschi,  L. Vogt,  Tao Wang,  A. Warshel,  M. A. Watson,
 C. F. Williams,  Q. Wu,  X. Xu,  Jun Yang,  W. Zhang,  Yan Zhao

 Please cite Q-Chem as follows:
 Y. Shao et al., Mol. Phys. 113, 184-215 (2015)
 DOI: 10.1080/00268976.2014.952696

 Q-Chem 5.4.1 for Intel X86 EM64T Linux

 Parts of Q-Chem use Armadillo 9.900.5 (Nocturnal Misbehaviour).
 http://arma.sourceforge.net/

 Q-Chem begins on Wed Jun  1 23:30:39 2022

 Host: p09r14n13.grace.hpc.yale.internal
0

     Scratch files written to /home/tl686/scratch60/qchem_dev/scratch/qchem244003//
 Processing $rem in /home/tl686/qchem_dev/qchem/config/preferences:
 Processing $rem in /home/tl686/.qchemrc:
Applying user defined connections for MM calculations
The previous job contains 0 fragments, simply inherited here

 Checking the input file for inconsistencies... 	...done.

--------------------------------------------------------------
User input:
--------------------------------------------------------------

$molecule
READ
$end

$qm_atoms
1:11
$end

$force_field_params
NumAtomTypes 3
AtomType -1   0.0238     3.11   0.2868
AtomType -2   0.07124    3.30   0.6597
AtomType -3  -0.0760     3.09   0.1434
$end

$rem
     JOBTYPE  freq
     METHOD   bp86
     BASIS    def2-msvp
     MAX_SCF_CYCLES   800
     INPUT_BOHR TRUE
     SYM_IGNORE TRUE
     SCF_GUESS     read
     user_connect            true
     qm_mm_interface         ONIOM
     force_field             oplsaa
$end

--------------------------------------------------------------

    2   -1830.4901946695      2.90E-09 Convergence criterion met
 Total energy in the final basis set = -1828.29005224

                    Orbital Energies (a.u.)
 --------------------------------------------------------------

 Alpha MOs
 -- Occupied --
******** -29.6322 -25.5920 -25.5795 -25.5758 -18.9042 -18.8942 -18.8728
-18.8659 -18.8644 -10.0561 -10.0545 -10.0435 -10.0375 -10.0363  -3.3158
 -2.1499  -2.1272  -2.1199  -1.1293  -1.0858  -1.0271  -1.0228  -1.0211
 -0.5704  -0.5332  -0.5166  -0.5152  -0.5132  -0.4760  -0.4747  -0.4616
 -0.4480  -0.4448  -0.4292  -0.4149  -0.4050  -0.4032  -0.4012  -0.3980
 -0.3959  -0.3912  -0.3896  -0.3724  -0.2702  -0.2662  -0.2364  -0.2104

          Ground-State Mulliken Net Atomic Charges

     Atom                 Charge (a.u.)
  ----------------------------------------
      1 Fe                   -0.488437
      2 C                     0.173400
      3 C                     0.199155
      4 C                     0.223349
      5 C                     0.197998
      6 C                     0.216034
      7 O                    -0.010085
      8 O                    -0.068642
      9 O                    -0.152484
     10 O                    -0.143789
     11 O                    -0.146499
  ----------------------------------------
  Sum of atomic charges =     0.000000

                    Cartesian Multipole Moments
 -----------------------------------------------------------------
    Charge (ESU x 10^10)
                -0.0000
    Dipole Moment (Debye)
         X       0.4147019739      Y       0.0793495750      Z       0.1719064936
       Tot       0.4558792875
    Quadrupole Moments (Debye-Ang)
        XX    -109.4730     XY     -13.1964     YY     -74.1639
        XZ     -20.8557     YZ      -6.3765     ZZ     -81.6502

 Frequency:      -504.68                -488.69                -142.59
 Force Cnst:      2.1366                 2.0264                 0.1921
 Red. Mass:      14.2376                14.4019                16.0384
 IR Intens:        0.000                  0.000                  0.000
 Frequency:      -127.56                  98.75                 121.28
 Force Cnst:      0.1527                 0.0877                 0.1340
 Red. Mass:      15.9305                15.2672                15.4620
 IR Intens:        0.000                  0.000                  0.000
 Frequency:       166.71                 233.36                 246.93
 Force Cnst:      0.2756                 0.4673                 0.5014
 Red. Mass:      16.8304                14.5641                13.9565
 IR Intens:        0.000                  0.000                  0.000
 Frequency:       339.23                 369.42                 385.72
 Force Cnst:      0.8841                 1.0374                 1.2379
 Red. Mass:      13.0397                12.9025                14.1221
 IR Intens:        0.000                  0.000                  0.000
 Frequency:       401.06                 451.24                 454.59
 Force Cnst:      1.3423                 1.8874                 1.7912
 Red. Mass:      14.1637                15.7327                14.7112
 IR Intens:        0.000                  0.000                  0.000
 Frequency:       515.74                 528.85                 549.56
 Force Cnst:      2.3294                 2.3655                 2.3811
 Red. Mass:      14.8635                14.3550                13.3816
 IR Intens:        0.000                  0.000                  0.000
 Frequency:       558.05                 604.23                 624.76
 Force Cnst:      2.3195                 3.4005                 3.5770
 Red. Mass:      12.6412                15.8080                15.5540
 IR Intens:        0.000                  0.000                  0.000
 Frequency:       659.67                1746.44                1827.99
 Force Cnst:      4.5175                23.9856                26.1379
 Red. Mass:      17.6194                13.3472                13.2762
 IR Intens:        0.000                  0.000                  0.000
 Frequency:      1885.60                2283.92                2747.49
 Force Cnst:     27.8243                41.1579                59.5770
 Red. Mass:      13.2823                13.3919                13.3954
 IR Intens:        0.000                  0.000                  0.000

 STANDARD THERMODYNAMIC QUANTITIES AT   298.15 K  AND     1.00 ATM

   This Molecule has  4 Imaginary Frequencies
   Zero point vibrational energy:       25.447 kcal/mol

   Atom    1 Element Fe Has Mass   55.93490
   Atom    2 Element C  Has Mass   12.00000
   Atom    3 Element C  Has Mass   12.00000
   Atom    4 Element C  Has Mass   12.00000
   Atom    5 Element C  Has Mass   12.00000
   Atom    6 Element C  Has Mass   12.00000
   Atom    7 Element O  Has Mass   15.99491
   Atom    8 Element O  Has Mass   15.99491
   Atom    9 Element O  Has Mass   15.99491
   Atom   10 Element O  Has Mass   15.99491
   Atom   11 Element O  Has Mass   15.99491
   Molecular Mass:   195.909450 amu
   Principal axes and moments of inertia in amu*Bohr^2:
                             1           2           3
    Eigenvalues --     1912.22303  2088.44673  2472.71762
          X               0.91686     0.20113    -0.34485
          Y               0.39868    -0.41646     0.81708
          Z              -0.02072     0.88663     0.46201
   Rotational Symmetry Number is   1
   The Molecule is an Asymmetric Top
   Translational Enthalpy:        0.889 kcal/mol
   Rotational Enthalpy:           0.889 kcal/mol
   Vibrational Enthalpy:         29.303 kcal/mol
   gas constant (RT):             0.592 kcal/mol
   Translational Entropy:        41.722  cal/mol.K
   Rotational Entropy:           30.669  cal/mol.K
   Vibrational Entropy:          21.985  cal/mol.K

   Total Enthalpy:               31.673 kcal/mol
   Total Entropy:                94.376  cal/mol.K

 Total job time:  125.73s(wall), 248.12s(cpu)
        *  Thank you very much for using Q-Chem.  Have a nice day.  *
