 Q-Chem 5.4 (devel), Q-Chem, Inc., Pleasanton, CA (2021)
 Q-Chem 5.4.1 for Intel X86 EM64T Linux

User input:
--------------------------------------------------------------
$molecule
0   1
 Fe -95.61850398 -56.83517765 -55.29216926    -1  0   0   0   0
C -92.44365465 -55.90603826 -54.20963868    -2  0   0   0   0
C -98.66169386 -57.82186040 -56.12784199    -2  0   0   0   0
C -97.03809364 -53.74308864 -55.34728431    -2  0   0   0   0
C -94.38935189 -58.30660011 -58.13155816    -2  0   0   0   0
C -95.82512279 -58.38881733 -52.18135839    -2  0   0   0   0
O -90.46628540 -55.33912174 -53.78114676    -3  0   0   0   0
O -100.77151508 -58.42919276 -56.46752643    -3  0   0   0   0
O -98.19749198 -51.80159907 -55.12048088    -3  0   0   0   0
O -93.69849143 -59.38197024 -59.95962753    -3  0   0   0   0
O -95.36222273 -59.26724262 -50.25806228    -3  0   0   0   0
H -72.40908952 -44.21774743 -56.95813411      6     13    0    0    0
C -73.78679521 -42.68102429 -57.46445078     1     12    14    15    16
H -74.45719989 -42.06855333 -55.49456986     6     13    0    0    0
H -72.84461590 -41.06857932 -58.42371323     6     13    0    0    0
C -76.19654378 -43.54541643 -58.98099158     2     13    17    18    19
H -77.21224587 -45.00525846 -57.88067914     6     16    0    0    0
H -77.51789935 -41.98976223 -59.41430884     6     16    0    0    0
C -75.62401929 -44.82511933 -61.50235294     2     16    20   21   22
H -74.80483266 -43.40669726 -62.75916169     6     19    0    0    0
H -74.22620528 -46.30389979 -61.24813922     6     19    0    0    0
C -77.94066534 -45.96315354 -62.72365353     2     19   23   24   25
H -78.60651070 -47.63413934 -61.60483835     6    22    0    0    0
H -79.27424288 -44.46103140 -62.83962467     6    22    0    0    0
C -77.38258509 -46.76877097 -65.46700593     2    22   26   27   28
H -76.61291711 -45.15836294 -66.29874042     6    25    0    0    0
H -75.99802242 -48.23111719 -65.52706709     6    25    0    0    0
C -79.72985811 -47.63299818 -66.90310481     2    25   29   30   31
H -80.63250575 -49.13474554 -65.67923733     6    28    0    0    0
H -80.96701063 -45.95270286 -66.98725208     6    28    0    0    0
C -78.93009390 -48.51376903 -69.49832213     2    28   32   33   34
H -77.94051201 -46.96430974 -70.59251404     6    31    0    0    0
H -77.56764216 -49.94703358 -69.27554182     6    31    0    0    0
C -81.02508606 -49.56059730 -71.12711662     2    31   35   36   37
H -82.42585613 -50.87320656 -70.09756489     6    34    0    0    0
H -82.23143235 -47.91951251 -71.79874983     6    34    0    0    0
C -80.19639197 -50.80847568 -73.55574509     2    34   38   39   40
H -79.25775770 -49.29133284 -74.59113820     6    37    0    0    0
H -78.89449324 -52.19230969 -72.83384667     6    37    0    0    0
C -82.38481633 -52.19016452 -74.92570030     2    37   41   42   43
H -83.97258960 -52.47528413 -73.55381113     6    40    0    0    0
H -83.02818147 -50.92025697 -76.39195462     6    40    0    0    0
C -81.67885326 -54.75361282 -76.14845869     2    40   44   45   46
H -80.04990247 -54.42517665 -77.43482504     6    43    0    0    0
H -81.13652164 -55.97395962 -74.60635820     6    43    0    0    0
C -83.83696117 -56.07796795 -77.50179054     1    43   47   48   49
H -85.16174041 -56.55195816 -76.14322990     6    46    0    0    0
H -83.46716712 -57.87629420 -78.47413340     6    46    0    0    0
H -84.77182277 -54.65726516 -78.77012003     6    46    0    0    0
H -85.31047018 -56.56920884 -61.79732968     6     51    0    0    0
C -85.71186149 -57.42970172 -63.57875445     1     50    52    53    54
H -84.97338913 -59.35914732 -63.50290676     6     51    0    0    0
H -87.63003185 -57.40422880 -63.69741160     6     51    0    0    0
C -84.49569144 -56.01017693 -65.81986058     2     51    55    56    57
H -85.19028914 -54.08994123 -65.81056345     6     54    0    0    0
H -82.40685683 -55.88315384 -65.39473731     6     54    0    0    0
C -85.03086085 -56.93647981 -68.54230647     2     54    58   59   60
H -87.07361013 -56.90811174 -68.69678305     6     57    0    0    0
H -84.25339779 -55.77287459 -69.95378143     6     57    0    0    0
C -84.51287248 -59.74768875 -69.23506724     2     57   61   62   63
H -82.56338470 -60.06528904 -68.98049807     6    60    0    0    0
H -85.23882911 -61.17225544 -67.81665835     6    60    0    0    0
C -85.46331626 -60.74398261 -71.84441252     2    60   64   65   66
H -87.33941341 -61.79536922 -71.82852671     6    63    0    0    0
H -85.94336844 -59.29094150 -73.09640104     6    63    0    0    0
C -83.45635062 -62.41570125 -73.29447270     2    63   67   68   69
H -84.21173805 -62.90371979 -75.15917335     6    66    0    0    0
H -81.81971309 -61.14507693 -73.48461899     6    66    0    0    0
C -83.06226142 -64.92426519 -71.79536131     2    66   70   71   72
H -82.33891545 -64.18615115 -70.05227750     6    69    0    0    0
H -84.70287579 -65.98060849 -71.59532768     6    69    0    0    0
C -81.14361432 -66.80997378 -72.88720381     2    69   73   74   75
H -81.47722758 -67.26246277 -74.78833058     6    72    0    0    0
H -79.29536044 -65.94847021 -73.04650720     6    72    0    0    0
C -80.96418367 -69.41285703 -71.47186629     2    72   76   77   78
H -80.49437768 -69.22331397 -69.47751490     6    75    0    0    0
H -82.82290649 -70.21803144 -71.79088502     6    75    0    0    0
C -79.01010749 -71.35242048 -72.65235710     2    75   79   80   81
H -79.76766250 -72.02220760 -74.54617513     6    78    0    0    0
H -77.29793015 -70.40427997 -73.26972855     6    78    0    0    0
C -78.51530060 -73.59136660 -70.76741585     2    78   82   83   84
H -78.01309985 -72.63091738 -68.96386180     6    81    0    0    0
H -80.12960873 -74.85772623 -70.48388901     6    81    0    0    0
C -76.25304833 -75.30984659 -71.37675927     1    81   85   86   87
H -74.58398483 -74.23264123 -71.03686336     6    84    0    0    0
H -76.34236951 -76.14948414 -73.26563066     6    84    0    0    0
H -76.04797216 -77.05233040 -69.96465596     6    84    0    0    0
H -85.69345407 -35.19176434 -82.11906131     6     89    0    0    0
C -84.00710805 -35.27159978 -83.22177020     1     88    90    91    92
H -84.39104755 -34.15641039 -84.85306223     6     89    0    0    0
H -82.31794957 -34.51321403 -82.30026580     6     89    0    0    0
C -83.75461522 -38.04383843 -84.17906716     2     89    93    94    95
H -83.63261839 -39.23692877 -82.55332832     6     92    0    0    0
H -85.56263751 -38.27947742 -85.20962460     6     92    0    0    0
C -81.60820658 -38.74665974 -85.87024860     2     92    96   97   98
H -81.30558911 -37.26704909 -87.34217644     6     95    0    0    0
H -79.96052049 -38.69283731 -84.65262683     6     95    0    0    0
C -81.85231195 -41.21206662 -87.07613444     2     95   99   100   101
H -82.36738010 -42.70665743 -85.72896691     6    98    0    0    0
H -83.22299420 -40.90405321 -88.51698176     6    98    0    0    0
C -79.54101976 -41.86471923 -88.71409531     2    98   102   103   104
H -79.20351041 -40.45541629 -90.20928767     6    101    0    0    0
H -77.96874914 -41.70408006 -87.37078312     6    101    0    0    0
C -79.55234425 -44.45606355 -90.10018534     2    101   105   106   107
H -80.72809295 -45.76471564 -89.15746529     6    104    0    0    0
H -80.37932004 -43.91136152 -91.97549430     6    104    0    0    0
C -76.80351013 -45.59396854 -90.60959021     2    104   108   109   110
H -75.87687318 -44.43313052 -92.11066407     6    107    0    0    0
H -75.48099145 -45.24688705 -89.17532134     6    107    0    0    0
C -76.88733819 -48.50840330 -90.91071220     2    107   111   112   113
H -77.71745203 -49.25627323 -89.15469476     6    110    0    0    0
H -78.13080290 -49.02761996 -92.36926348     6    110    0    0    0
C -74.30539352 -49.64622504 -91.52807211     2    110   114   115   116
H -73.60404830 -48.80543364 -93.19004067     6    113    0    0    0
H -72.91505916 -49.01875477 -90.08193262     6    113    0    0    0
C -74.28741559 -52.54157173 -92.03503246     2    113   117   118   119
H -74.89702144 -53.25674168 -90.06918145     6    116    0    0    0
H -75.98274232 -52.69079723 -93.19133302     6    116    0    0    0
C -71.63872008 -53.55394502 -93.18658376     2    116   120   121   122
H -71.27916696 -52.57108274 -94.92922671     6    119    0    0    0
H -70.06525801 -52.87367637 -92.10629423     6    119    0    0    0
C -71.41570768 -56.42951967 -93.56398173     1    119   123   124   125
H -71.70968487 -56.91223599 -95.62289016     6    122    0    0    0
H -72.56421160 -57.59929828 -92.24879163     6    122    0    0    0
H -69.53250922 -57.06587387 -93.05587187     6    122    0    0    0
H -105.43855807 -40.26933007 -80.38400297     6     127    0    0    0
C -106.87155723 -40.43862734 -78.83370229     1     126    128    129    130
H -106.47948422 -38.63853710 -78.06861271     6     127    0    0    0
H -108.85384196 -40.45772395 -79.43924929     6     127    0    0    0
C -106.16604729 -42.58194287 -76.98474572     2     127    131    132    133
H -106.56381456 -44.60331284 -77.51418046     6     130    0    0    0
H -104.11076075 -42.27785152 -76.44920674     6     130    0    0    0
C -107.41691923 -42.64889587 -74.45339405     2     130    134   135   136
H -107.80951021 -40.57509622 -74.01802997     6     133    0    0    0
H -109.08972585 -43.58408830 -74.51160864     6     133    0    0    0
C -105.94622518 -43.69418125 -72.23168493     2     133   137   138   139
H -105.52959110 -45.75253433 -72.52726194     6    136    0    0    0
H -104.17870013 -42.68621594 -72.11523593     6    136    0    0    0
C -107.41163256 -43.51068475 -69.77146280     2    136   140   141   142
H -108.55707570 -41.76796831 -69.88025731     6    139    0    0    0
H -108.72433136 -45.06684932 -69.66497762     6    139    0    0    0
C -105.76683345 -43.95210288 -67.51715182     2    139   143   144   145
H -105.06203785 -45.92302749 -67.36496422     6    142    0    0    0
H -104.14393400 -42.72897732 -67.80126413     6    142    0    0    0
C -107.17247288 -43.43475427 -65.09580680     2    142   146   147   148
H -107.75402487 -41.46605511 -64.98626933     6    145    0    0    0
H -108.96169976 -44.38028281 -64.96982965     6    145    0    0    0
C -105.61798785 -43.92290667 -62.78914774     2    145   149   150   151
H -104.92187279 -45.86822778 -62.67242232     6    148    0    0    0
H -103.97385903 -42.83173003 -63.02403725     6    148    0    0    0
C -107.04153366 -43.41701543 -60.39071069     2    148   152   153   154
H -107.67693445 -41.50103750 -60.53927379     6    151    0    0    0
H -108.76717928 -44.49369306 -60.51383374     6    151    0    0    0
C -105.55984660 -43.98744928 -57.96861823     2    151   155   156   157
H -106.71915625 -43.32937547 -56.52223240     6    154    0    0    0
H -105.26691610 -45.99196985 -57.19081484     6    154    0    0    0
C -103.22269125 -42.35983502 -57.52336029     2    154   158   159   160
H -101.76726677 -42.83289918 -59.02160045     6    157    0    0    0
H -103.81448957 -40.34290944 -57.74349621     6    157    0    0    0
C -101.75092480 -42.50107315 -54.93897969     1    157   161   162   163
H -102.97169242 -42.07691812 -53.33243479     6    160    0    0    0
H -100.30899365 -41.01386270 -54.86416127     6    160    0    0    0
H -100.84973978 -44.36475742 -54.59199564     6    160    0    0    0
H -108.66935207 -63.77544892 -91.59294414     6     165    0    0    0
C -108.34529307 -62.36680579 -90.09746719     1     164    166    167    168
H -109.49987811 -63.09524953 -88.38985407     6     165    0    0    0
H -106.26763494 -62.42386209 -89.69674965     6     165    0    0    0
C -109.19111601 -59.65009909 -90.82347919     2     165    169    170    171
H -108.57245970 -58.77344321 -92.59184997     6     168    0    0    0
H -111.14172476 -59.64931121 -90.94432187     6     168    0    0    0
C -108.68097990 -57.81072784 -88.71913447     2     168    172   173   174
H -109.73694238 -58.64525480 -87.13272083     6     171    0    0    0
H -106.63820801 -57.51449817 -88.31262394     6     171    0    0    0
C -109.65965180 -55.13621350 -89.31726685     2     171   175   176   177
H -108.52111499 -54.15873445 -90.78317855     6    174    0    0    0
H -111.57970377 -55.19639135 -90.03211230     6    174    0    0    0
C -109.63226945 -53.42460255 -87.08498643     2    174   178   179   180
H -111.03722710 -53.94984218 -85.66634000     6    177    0    0    0
H -107.90682370 -53.66567096 -86.09095679     6    177    0    0    0
C -109.88495464 -50.42856643 -87.67397328     2    177   181   182   183
H -108.03842919 -49.45359637 -88.15623171     6    180    0    0    0
H -110.83147878 -50.37350429 -89.43815402     6    180    0    0    0
C -111.37617826 -49.31035907 -85.52645430     2    180   184   185   186
H -113.21569688 -50.30864334 -85.01980012     6    183    0    0    0
H -110.18280919 -49.42516746 -83.85806600     6    183    0    0    0
C -111.83080434 -46.49344488 -85.88313381     2    183   187   188   189
H -109.95456978 -45.71121412 -86.10457735     6    186    0    0    0
H -112.54904841 -46.17550950 -87.81769652     6    186    0    0    0
C -113.19754085 -45.31343378 -83.64217901     2    186   190   191   192
H -115.09370380 -46.01242971 -83.45428343     6    189    0    0    0
H -112.04583642 -45.84449075 -82.02249989     6    189    0    0    0
C -113.63535395 -42.49701865 -83.58396982     2    189   193   194   195
H -111.94099230 -41.59311399 -84.30871374     6    192    0    0    0
H -115.25834097 -42.12522797 -84.82243666     6    192    0    0    0
C -114.31535446 -41.72319381 -80.90376443     2    192   196   197   198
H -113.42956402 -42.85542589 -79.50040506     6    195    0    0    0
H -113.46508737 -39.81487798 -80.69373657     6    195    0    0    0
C -117.03719950 -42.10177451 -79.98175219     1    195   199   200   201
H -117.18160998 -40.84656169 -78.30622100     6    198    0    0    0
H -117.28023754 -44.14335183 -79.45439569     6    198    0    0    0
H -118.33764368 -41.72141006 -81.53139248     6    198    0    0    0
H -105.53705303 -63.43983951 -77.87531085     6     203    0    0    0
C -104.61775583 -62.57294903 -79.52748748     1     202    204    205    206
H -105.52945907 -60.64933393 -79.86759865     6     203    0    0    0
H -102.56418390 -62.37699360 -79.10991891     6     203    0    0    0
C -104.96434781 -64.33842567 -81.72664111     2     203    207    208    209
H -106.61906945 -63.89295172 -82.71480403     6     206    0    0    0
H -103.59737642 -63.85490749 -83.08325047     6     206    0    0    0
C -104.63885450 -67.21074455 -81.23001949     2     206    210   211   212
H -104.48165467 -68.19896856 -82.98756832     6     209    0    0    0
H -102.98989582 -67.31165683 -80.05716490     6     209    0    0    0
C -106.81998002 -68.50483138 -79.85809841     2     209   213   214   215
H -107.21054036 -67.78485706 -78.13276074     6    212    0    0    0
H -108.51657630 -68.04684979 -81.02899964     6    212    0    0    0
C -106.73690731 -71.44141874 -79.83959790     2    212   216   217   218
H -107.40947477 -72.09672941 -81.71606435     6    215    0    0    0
H -104.72273160 -71.99314247 -79.63653895     6    215    0    0    0
C -108.51339630 -72.75676354 -77.84415460     2    215   219   220   221
H -108.05809232 -72.06078957 -75.97680416     6    218    0    0    0
H -110.41245799 -72.03357238 -78.29775843     6    218    0    0    0
C -108.66638120 -75.66495111 -77.98904983     2    218   222   223   224
H -109.64168068 -76.18123805 -79.69221092     6    221    0    0    0
H -106.91497579 -76.51623767 -78.24941466     6    221    0    0    0
C -109.70797981 -76.81262351 -75.73117310     2    221   225   226   227
H -108.73829198 -76.01388960 -73.98150587     6    224    0    0    0
H -111.70703271 -76.34592771 -75.70715069     6    224    0    0    0
C -110.12401606 -79.71852860 -76.00179469     2    224   228   229   230
H -111.17206374 -80.08627171 -77.66117832     6    227    0    0    0
H -108.29265719 -80.38915388 -76.34409331     6    227    0    0    0
C -111.46511854 -80.79788902 -73.66819972     2    227   231   232   233
H -110.13708862 -80.85849967 -72.09569899     6    230    0    0    0
H -112.91554646 -79.33760676 -73.32123844     6    230    0    0    0
C -112.42389917 -83.39341205 -73.94546753     2    230   234   235   236
H -113.47599722 -83.74241091 -75.61664640     6    233    0    0    0
H -110.87491340 -84.68623921 -74.05910382     6    233    0    0    0
C -114.07799098 -83.89239889 -71.56756366     1    233   237   238   239
H -114.71254626 -85.75018138 -71.83201734     6    236    0    0    0
H -115.70790297 -82.79843137 -71.46250419     6    236    0    0    0
H -112.99372925 -84.06221792 -69.86215471     6    236    0    0    0
H -83.46084509 -70.98519535 -81.68637018     6     241    0    0    0
C -81.91992246 -69.76070676 -81.20494578     1     240    242    243    244
H -81.58351741 -68.48422985 -82.72999923     6     241    0    0    0
H -82.35047618 -68.91172247 -79.32471008     6     241    0    0    0
C -79.56472486 -71.38883098 -81.15540445     2     241    245    246    247
H -80.07564460 -72.95787764 -79.95177352     6     244    0    0    0
H -79.24079445 -72.31964032 -82.97171971     6     244    0    0    0
C -77.36671270 -69.76349118 -80.18348719     2     244    248   249   250
H -77.47212825 -67.91368980 -81.07213622     6     247    0    0    0
H -77.60514177 -69.49361189 -78.15929964     6     247    0    0    0
C -74.73706698 -70.92580199 -80.55963314     2     247   251   252   253
H -74.29229643 -71.30206994 -82.43835827     6    250    0    0    0
H -73.31225442 -69.57282588 -80.02538872     6    250    0    0    0
C -74.44579399 -73.19869270 -78.73226720     2    250   254   255   256
H -74.98907727 -72.96939898 -76.92328694     6    253    0    0    0
H -75.85370839 -74.67527225 -79.24468670     6    253    0    0    0
C -71.87239675 -74.41615167 -78.94073399     2    253   257   258   259
H -71.50528458 -74.93288594 -80.96673980     6    256    0    0    0
H -70.48996179 -73.04393813 -78.64839239     6    256    0    0    0
C -71.32375046 -76.61837439 -77.16175613     2    256   260   261   262
H -71.75890405 -76.08154481 -75.29129168     6    259    0    0    0
H -72.51972963 -78.16930166 -77.57754658     6    259    0    0    0
C -68.64244082 -77.54250418 -77.59749723     2    259   263   264   265
H -68.88132615 -78.35085536 -79.55358345     6    262    0    0    0
H -67.27125881 -76.02234281 -77.42202301     6    262    0    0    0
C -67.91271939 -79.53415534 -75.52981189     2    262   266   267   268
H -67.98384686 -78.38460728 -73.81541513     6    265    0    0    0
H -69.13024157 -81.01153704 -75.29843555     6    265    0    0    0
C -65.31768259 -80.55305929 -76.02244464     2    265   269   270   271
H -65.31786137 -81.61962894 -77.93615044     6    268    0    0    0
H -63.93832346 -79.02267516 -76.04174909     6    268    0    0    0
C -64.29865674 -82.67029954 -74.41585722     2    268   272   273   274
H -63.54522242 -81.76583708 -72.70376481     6    271    0    0    0
H -65.69163444 -83.91317485 -74.04900012     6    271    0    0    0
C -61.81114426 -83.74461211 -75.75585794     1    271   275   276   277
H -62.20836428 -84.32498902 -77.62165437     6    274    0    0    0
H -61.03298986 -85.39867951 -74.77710344     6    274    0    0    0
H -60.38419368 -82.31038850 -75.91503073     6    274    0    0    0
H -100.94225050 -62.68547989 -90.92198955     6     279    0    0    0
C -99.47789418 -64.08187062 -90.23063526     1     278    280    281    282
H -100.33669711 -65.96626693 -90.17730805     6     279    0    0    0
H -97.91236132 -64.22431640 -91.55996810     6     279    0    0    0
C -98.49007723 -63.40528188 -87.62229074     2     279    283    284    285
H -97.58683526 -61.53218287 -87.62966484     6     282    0    0    0
H -100.10895549 -63.37220615 -86.28150318     6     282    0    0    0
C -96.81047385 -65.58437447 -86.56730360     2     282    286   287   288
H -97.82434268 -67.28218779 -86.62263367     6     285    0    0    0
H -95.33212356 -66.16637732 -87.70912776     6     285    0    0    0
C -95.91791738 -65.00964357 -83.85363106     2     285   289   290   291
H -95.04206616 -63.21792055 -84.09885037     6    288    0    0    0
H -97.44967365 -64.63679033 -82.41346837     6    288    0    0    0
C -93.94723837 -66.87210840 -82.87507790     2    288   292   293   294
H -92.76188760 -67.53854944 -84.40811549     6    291    0    0    0
H -92.65414919 -65.72954377 -81.78070575     6    291    0    0    0
C -95.20182676 -69.08972099 -81.50080574     2    291   295   296   297
H -96.02549997 -68.44269567 -79.86557198     6    294    0    0    0
H -96.54871651 -69.93838876 -82.80715527     6    294    0    0    0
C -93.38828543 -71.14912227 -80.71021406     2    294   298   299   300

   18   -1830.5105144836      3.91E-09 Convergence criterion met
 Total energy in the final basis set = -1828.26823261
 Total job time:  16.93s(wall), 30.81s(cpu)
        *  Thank you very much for using Q-Chem.  Have a nice day.  *

User input: 2 of 2

                  Welcome to Q-Chem
     A Quantum Leap Into The Future Of Chemistry

 Q-Chem 5.4 (devel), Q-Chem, Inc., Pleasanton, CA (2021)

 E. Epifanovsky,  A. T. B. Gilbert,  Xintian Feng,  Joonho Lee,  Yuezhi Mao,
 N. Mardirossian,  P. Pokhilko,  A. White,  M. Wormit,  M. P. Coons,
 A. L. Dempwolff,  Zhengting Gan,  D. Hait,  P. R. Horn,  L. D. Jacobson,
 I. Kaliman,  J. Kussmann,  A. W. Lange,  Ka Un Lao,  D. S. Levine,  Jie Liu,
 S. C. McKenzie,  A. F. Morrison,  K. Nanda,  F. Plasser,  D. R. Rehn,
 M. L. Vidal,  Zhi-Qiang You,  Ying Zhu,  B. Alam,  B. Albrecht,
 A. Aldossary,  E. Alguire,  J. H. Andersen,  D. Barton,  K. Begam,  A. Behn,
 Y. A. Bernard,  E. J. Berquist,  H. Burton,  A. Carreras,  K. Carter-Fenk,
 R. Chakraborty,  A. D. Chien,  K. D. Closser,  V. Cofer-Shabica,
 S. Dasgupta,  Jia Deng,  M. de Wergifosse,  M. Diedenhofen,  Hainam Do,
 S. Ehlert,  Po-Tung Fang,  S. Fatehi,  Qingguo Feng,  T. Friedhoff,
 J. Gayvert,  Qinghui Ge,  G. Gidofalvi,  M. Goldey,  J. Gomes,
 C. Gonzalez-Espinoza,  S. Gulania,  A. Gunina,  M. W. D. Hanson-Heine,
 P. H. P. Harbach,  A. W. Hauser,  M. F. Herbst,  M. Hernandez Vera,
 M. Hodecker,  Z. C. Holden,  S. Houck,  Xunkun Huang,  Kerwin Hui,
 B. C. Huynh,  M. Ivanov,  Hyunjun Ji,  Hanjie Jiang,  B. Kaduk,  S. Kaehler,
 K. Khistyaev,  Jaehoon Kim,  P. Klunzinger,  Z. Koczor-Benda,
 Joong Hoon Koh,  D. Kosenkov,  L. Koulias,  T. Kowalczyk,  C. M. Krauter,
 K. Kue,  A. Kunitsa,  T. Kus,  A. Landau,  K. V. Lawler,  D. Lefrancois,
 S. Lehtola,  Rain Li,  Yi-Pei Li,  Jiashu Liang,  M. Liebenthal,
 Hung-Hsuan Lin,  You-Sheng Lin,  Fenglai Liu,  Kuan-Yu Liu,
 M. Loipersberger,  A. Luenser,  A. Manjanath,  P. Manohar,  E. Mansoor,
 S. F. Manzer,  Shan-Ping Mao,  A. V. Marenich,  T. Markovich,  S. Mason,
 S. A. Maurer,  P. F. McLaughlin,  M. F. S. J. Menger,  J.-M. Mewes,
 S. A. Mewes,  P. Morgante,  J. W. Mullinax,  K. J. Oosterbaan,  G. Paran,
 Alexander C. Paul,  Suranjan K. Paul,  F. Pavosevic,  Zheng Pei,  S. Prager,
 E. I. Proynov,  E. Ramos,  B. Rana,  A. E. Rask,  A. Rettig,  R. M. Richard,
 F. Rob,  E. Rossomme,  T. Scheele,  M. Scheurer,  M. Schneider,
 N. Sergueev,  S. M. Sharada,  W. Skomorowski,  D. W. Small,  C. J. Stein,
 Yu-Chuan Su,  E. J. Sundstrom,  Zhen Tao,  J. Thirman,  T. Tsuchimochi,
 N. M. Tubman,  S. P. Veccham,  O. Vydrov,  J. Wenzel,  J. Witte,  A. Yamada,
 Kun Yao,  S. Yeganeh,  S. R. Yost,  A. Zech,  Igor Ying Zhang,  Xing Zhang,
 Yu Zhang,  D. Zuev,  A. Aspuru-Guzik,  A. T. Bell,  N. A. Besley,
 K. B. Bravaya,  B. R. Brooks,  D. Casanova,  Jeng-Da Chai,  S. Coriani,
 C. J. Cramer,  A. E. DePrince, III,  R. A. DiStasio Jr.,  A. Dreuw,
 B. D. Dunietz,  T. R. Furlani,  W. A. Goddard III,  S. Grimme,
 S. Hammes-Schiffer,  T. Head-Gordon,  W. J. Hehre,  Chao-Ping Hsu,
 T.-C. Jagau,  Yousung Jung,  A. Klamt,  Jing Kong,  D. S. Lambrecht,
 WanZhen Liang,  N. J. Mayhall,  C. W. McCurdy,  J. B. Neaton,
 C. Ochsenfeld,  J. A. Parkhill,  R. Peverati,  V. A. Rassolov,  Yihan Shao,
 L. V. Slipchenko,  T. Stauch,  R. P. Steele,  J. E. Subotnik,
 A. J. W. Thom,  A. Tkatchenko,  D. G. Truhlar,  T. Van Voorhis,
 T. A. Wesolowski,  K. B. Whaley,  H. L. Woodcock III,  P. M. Zimmerman,
 S. Faraji,  P. M. W. Gill,  M. Head-Gordon,  J. M. Herbert,  A. I. Krylov

 Additional authors for Version 5.4.1:
 S. Kotaru,  Shaozhi Li,  Xiangyuan Li,  F. Matz,  A. Molle,  Haisheng Ren,
 Yingli Su,  Hung-Yi Tsai,  C. Utku,  Fang Wang

 Contributors to earlier versions of Q-Chem not listed above:
 R. D. Adamson,  B. Austin,  R. Baer,  J. Baker,  G. J. O. Beran,
 K. Brandhorst,  S. T. Brown,  E. F. C. Byrd,  A. K. Chakraborty,
 G. K. L. Chan,  Chun-Min Chang,  Yunqing Chen,  C.-L. Cheng,
 Siu Hung Chien,  D. M. Chipman,  D. L. Crittenden,  H. Dachsel,
 R. J. Doerksen,  A. D. Dutoi,  R. G. Edgar,  J. Fosso-Tande,
 L. Fusti-Molnar,  D. Ghosh,  A. Ghysels,  A. Golubeva-Zadorozhnaya,
 J. Gonthier,  M. S. Gordon,  S. R. Gwaltney,  G. Hawkins,  J. E. Herr,
 A. Heyden,  S. Hirata,  E. G. Hohenstein,  G. Kedziora,  F. J. Keil,
 C. Kelley,  Jihan Kim,  R. A. King,  R. Z. Khaliullin,  P. P. Korambath,
 W. Kurlancheek,  A. Laurent,  A. M. Lee,  M. S. Lee,  S. V. Levchenko,
 Ching Yeh Lin,  D. Liotard,  E. Livshits,  R. C. Lochan,  I. Lotan,
 L. A. Martinez-Martinez,  P. E. Maslen,  N. Nair,  D. P. O'Neill,
 D. Neuhauser,  E. Neuscamman,  C. M. Oana,  R. Olivares-Amaya,  R. Olson,
 T. M. Perrine,  B. Peters,  P. A. Pieniazek,  A. Prociuk,  Y. M. Rhee,
 J. Ritchie,  M. A. Rohrdanz,  E. Rosta,  N. J. Russ,  H. F. Schaefer III,
 M. W. Schmidt,  N. E. Schultz,  S. Sharma,  N. Shenvi,  C. D. Sherrill,
 A. C. Simmonett,  A. Sodt,  T. Stein,  D. Stuck,  K. S. Thanthiriwatte,
 V. Vanovschi,  L. Vogt,  Tao Wang,  A. Warshel,  M. A. Watson,
 C. F. Williams,  Q. Wu,  X. Xu,  Jun Yang,  W. Zhang,  Yan Zhao

 Please cite Q-Chem as follows:
 Y. Shao et al., Mol. Phys. 113, 184-215 (2015)
 DOI: 10.1080/00268976.2014.952696

 Q-Chem 5.4.1 for Intel X86 EM64T Linux

 Parts of Q-Chem use Armadillo 9.900.5 (Nocturnal Misbehaviour).
 http://arma.sourceforge.net/

 Q-Chem begins on Wed Jun 22 16:41:40 2022

 Host: p09r14n13.grace.hpc.yale.internal
0

     Scratch files written to /home/tl686/scratch60/qchem_dev/scratch/qchem246746//
 Processing $rem in /home/tl686/qchem_dev/qchem/config/preferences:
 Processing $rem in /home/tl686/.qchemrc:
Applying user defined connections for MM calculations
The previous job contains 0 fragments, simply inherited here

 Checking the input file for inconsistencies... 	...done.

--------------------------------------------------------------
User input:
--------------------------------------------------------------

$molecule
READ
$end

$qm_atoms
1:11
$end

$force_field_params
NumAtomTypes 3
AtomType -1   0.0238     3.11   0.2868
AtomType -2   0.07124    3.30   0.6597
AtomType -3  -0.0760     3.09   0.1434
$end

$rem
     JOBTYPE  freq
     METHOD   bp86
     BASIS    def2-msvp
     MAX_SCF_CYCLES   800
     INPUT_BOHR TRUE
     SYM_IGNORE TRUE
     SCF_GUESS     read
     user_connect            true
     qm_mm_interface         ONIOM
     force_field             oplsaa
$end

--------------------------------------------------------------

    3   -1830.5105144840      2.32E-09 Convergence criterion met
 Total energy in the final basis set = -1828.26823261

                    Orbital Energies (a.u.)
 --------------------------------------------------------------

 Alpha MOs
 -- Occupied --
******** -29.6333 -25.5934 -25.5797 -25.5771 -18.8975 -18.8840 -18.8798
-18.8715 -18.8684 -10.0534 -10.0531 -10.0468 -10.0427 -10.0405  -3.3184
 -2.1556  -2.1279  -2.1220  -1.0984  -1.0667  -1.0479  -1.0351  -1.0207
 -0.5755  -0.5313  -0.5206  -0.5156  -0.5105  -0.4631  -0.4577  -0.4537
 -0.4373  -0.4342  -0.4313  -0.4276  -0.4194  -0.4111  -0.4079  -0.3983
 -0.3973  -0.3936  -0.3906  -0.3752  -0.2767  -0.2719  -0.2315  -0.2200

          Ground-State Mulliken Net Atomic Charges

     Atom                 Charge (a.u.)
  ----------------------------------------
      1 Fe                   -0.462096
      2 C                     0.193390
      3 C                     0.172741
      4 C                     0.225258
      5 C                     0.209659
      6 C                     0.218924
      7 O                    -0.052217
      8 O                    -0.127523
      9 O                    -0.152065
     10 O                    -0.133061
     11 O                    -0.093010
  ----------------------------------------
  Sum of atomic charges =     0.000000

                    Cartesian Multipole Moments
 -----------------------------------------------------------------
    Charge (ESU x 10^10)
                -0.0000
    Dipole Moment (Debye)
         X       0.6091908263      Y      -0.1264220673      Z       0.5614275884
       Tot       0.8380315858
    Quadrupole Moments (Debye-Ang)
        XX    -130.6603     XY     -10.2131     YY     -62.6625
        XZ     -45.7626     YZ     -13.9339     ZZ    -102.1698
