 Q-Chem 5.4 (devel), Q-Chem, Inc., Pleasanton, CA (2021)
 Q-Chem 5.4.1 for Intel X86 EM64T Linux

User input:
--------------------------------------------------------------
$molecule
0   1
 Fe -57.45741815 -29.46179581 8.19365180    -1  0   0   0   0
C -57.08158814 -32.28161341 6.34213235    -2  0   0   0   0
C -58.02096679 -27.11377483 10.65369888    -2  0   0   0   0
C -56.11720914 -27.58147699 5.81208329    -2  0   0   0   0
C -60.86034363 -29.77092913 7.98600105    -2  0   0   0   0
C -55.27772480 -30.92973328 10.42873094    -2  0   0   0   0
O -56.88038001 -34.22053646 5.45943192    -3  0   0   0   0
O -58.21720746 -25.76393035 12.39445945    -3  0   0   0   0
O -55.09584869 -26.47268528 4.23455420    -3  0   0   0   0
O -63.12364603 -29.87602293 7.76868457    -3  0   0   0   0
O -53.96843729 -31.99172319 11.77778613    -3  0   0   0   0
H -58.57553022 -39.66875909 -15.27049517      6     13    0    0    0
C -58.09282038 -40.90850283 -13.69991481     1     12    14    15    16
H -56.41086489 -42.13128572 -14.07910116     6     13    0    0    0
H -57.48802668 -39.47238466 -12.32794728     6     13    0    0    0
C -60.13968562 -42.52543538 -12.61388542     2     13    17    18    19
H -61.33647005 -43.12701057 -14.13717494     6     16    0    0    0
H -59.47997218 -44.21515929 -11.67824962     6     16    0    0    0
C -61.80958282 -41.09034476 -10.70520869     2     16    20   21   22
H -60.60210865 -40.17344839 -9.28460594     6     19    0    0    0
H -62.98443455 -39.56626479 -11.40966768     6     19    0    0    0
C -63.70780735 -42.94478575 -9.37609425     2     19   23   24   25
H -64.72559465 -43.85971494 -10.96435241     6    22    0    0    0
H -62.55610200 -44.53453658 -8.26630192     6    22    0    0    0
C -65.74135886 -41.60346715 -7.68204613     2    22   26   27   28
H -64.82412446 -40.46302419 -6.18839890     6    25    0    0    0
H -66.93945768 -40.37381722 -8.88251079     6    25    0    0    0
C -67.58931368 -43.51075629 -6.45211823     2    25   29   30   31
H -68.41772887 -44.50362218 -8.07425456     6    28    0    0    0
H -66.36912638 -44.73378597 -5.25917099     6    28    0    0    0
C -69.60350398 -42.15435374 -4.67738327     2    28   32   33   34
H -68.58157825 -41.12257381 -3.23900729     6    31    0    0    0
H -70.53471825 -40.74235778 -5.80486911     6    31    0    0    0
C -71.52328601 -43.95600572 -3.58276596     2    31   35   36   37
H -71.94563752 -45.32260555 -5.15446114     6    34    0    0    0
H -70.69256276 -45.19674786 -2.05976414     6    34    0    0    0
C -73.94639063 -42.60250264 -2.44298172     2    34   38   39   40
H -73.06878828 -41.66410015 -0.75746547     6    37    0    0    0
H -74.78352723 -41.11314951 -3.61519011     6    37    0    0    0
C -76.04317233 -44.61204812 -1.62983166     2    37   41   42   43
H -76.29996489 -45.91828844 -3.11318501     6    40    0    0    0
H -75.25496098 -46.15449019 -0.30951079     6    40    0    0    0
C -78.43030300 -43.41971736 -0.40548867     2    40   44   45   46
H -77.70442712 -42.02796685 0.96715319     6    43    0    0    0
H -79.53772687 -42.32357683 -1.63841977     6    43    0    0    0
C -79.77664888 -45.41220092 1.25066535     1    43   47   48   49
H -80.60909425 -46.78979281 0.06919388     6    46    0    0    0
H -81.33947114 -44.40578542 2.24451705     6    46    0    0    0
H -78.54305739 -46.20684674 2.70399975     6    46    0    0    0
H -65.46288957 -37.75737538 6.34975310     6     51    0    0    0
C -64.38379076 -36.09787751 6.08135058     1     50    52    53    54
H -64.32101023 -34.89941334 7.78114984     6     51    0    0    0
H -62.49803315 -36.64218399 5.59697784     6     51    0    0    0
C -65.81601887 -34.63341250 3.98572265     2     51    55    56    57
H -64.73918732 -32.92274808 3.58157556     6     54    0    0    0
H -65.74113944 -35.80085879 2.25704581     6     54    0    0    0
C -68.46190376 -33.94340932 4.74055242     2     54    58   59   60
H -68.21974595 -32.97044093 6.46909166     6     57    0    0    0
H -69.33039102 -32.65809939 3.53350970     6     57    0    0    0
C -70.19242328 -36.24822911 4.97485140     2     57   61   62   63
H -69.59866358 -37.80085030 3.70437913     6    60    0    0    0
H -69.84732988 -37.24884711 6.71920216     6    60    0    0    0
C -73.05126636 -35.66185486 4.56013684     2    60   64   65   66
H -73.68904466 -34.41809636 5.98171795     6    63    0    0    0
H -73.30266380 -34.64301933 2.81980918     6    63    0    0    0
C -74.91655902 -37.97964369 4.56161969     2    63   67   68   69
H -76.50803622 -37.53168483 3.40980467     6    66    0    0    0
H -74.17497684 -39.63006056 3.55749725     6    66    0    0    0
C -76.04158800 -38.85884222 7.26730815     2    66   70   71   72
H -74.68736407 -39.43023937 8.62063240     6    69    0    0    0
H -76.99441079 -37.24737141 8.07262946     6    69    0    0    0
C -77.92629358 -41.05157618 7.14052030     2    69   73   74   75
H -79.53241387 -40.56540035 6.04423514     6    72    0    0    0
H -76.93179136 -42.69563433 6.51649696     6    72    0    0    0
C -78.99548796 -41.75317404 9.84811637     2    72   76   77   78
H -77.64855185 -42.83553820 11.05641624     6    75    0    0    0
H -79.46720686 -40.13578494 10.97698901     6    75    0    0    0
C -81.45596516 -43.44660940 9.76453669     2    75   79   80   81
H -82.76213455 -42.72710618 8.21645318     6    78    0    0    0
H -81.09270989 -45.35675119 8.81064588     6    78    0    0    0
C -82.65159344 -43.78049400 12.28281086     2    78   82   83   84
H -81.56636817 -44.86652059 13.63171448     6    81    0    0    0
H -83.19953965 -42.01509110 13.16166535     6    81    0    0    0
C -85.23848307 -45.36031563 12.24163631     1    81   85   86   87
H -85.98773921 -45.30263550 14.09602510     6    84    0    0    0
H -84.63998653 -47.23970828 11.87612379     6    84    0    0    0
H -86.64465649 -44.90622980 10.84241211     6    84    0    0    0
H -60.80925208 -21.20877343 -27.93870499     6     89    0    0    0
C -62.09359833 -22.66432883 -28.61731201     1     88    90    91    92
H -63.80276435 -21.53563800 -28.51561944     6     89    0    0    0
H -61.56451859 -22.94251577 -30.64145734     6     89    0    0    0
C -62.30141453 -25.05253358 -27.01685967     2     89    93    94    95
H -60.49841605 -26.00965653 -27.08296715     6     92    0    0    0
H -62.58845934 -24.34187808 -25.04395174     6     92    0    0    0
C -64.39016755 -26.86326699 -28.01254462     2     92    96   97   98
H -66.20911096 -25.90866262 -27.85804853     6     95    0    0    0
H -64.48407910 -27.69380124 -29.97631644     6     95    0    0    0
C -64.88815167 -29.12640533 -26.23525044     2     95   99   100   101
H -63.31800989 -30.59416708 -26.00860408     6    98    0    0    0
H -64.89730905 -28.26732478 -24.43969137     6    98    0    0    0
C -67.37627336 -30.47471899 -27.00541410     2    98   102   103   104
H -68.97114260 -29.34617542 -27.49607292     6    101    0    0    0
H -66.64339649 -31.45137458 -28.70858333     6    101    0    0    0
C -68.37321022 -32.30594533 -25.00032698     2    101   105   106   107
H -66.87879719 -33.58204921 -24.35320267     6    104    0    0    0
H -68.87788952 -31.26993821 -23.38517625     6    104    0    0    0
C -70.72849213 -33.73006500 -25.85131773     2    104   108   109   110
H -72.32536711 -32.47315064 -26.01925219     6    107    0    0    0
H -70.30398019 -34.29382348 -27.67103705     6    107    0    0    0
C -71.57900616 -35.92077210 -23.97759308     2    107   111   112   113
H -70.02966857 -37.05351533 -23.57745889     6    110    0    0    0
H -72.19409324 -35.18293910 -22.09465857     6    110    0    0    0
C -73.99572497 -37.23547294 -25.04845743     2    110   114   115   116
H -75.25209688 -35.55975400 -25.38424303     6    113    0    0    0
H -73.63847038 -38.16487305 -26.98109820     6    113    0    0    0
C -75.07888327 -39.34329161 -23.42629073     2    113   117   118   119
H -73.62168094 -40.76611852 -23.55981157     6    116    0    0    0
H -74.97276951 -38.59183856 -21.51335099     6    116    0    0    0
C -77.81819320 -40.16072428 -23.87217195     2    116   120   121   122
H -79.16101415 -38.70508883 -23.30264249     6    119    0    0    0
H -77.95408765 -40.27667803 -25.92275832     6    119    0    0    0
C -78.26887976 -42.65455773 -22.69732775     1    119   123   124   125
H -80.21527952 -43.12431667 -22.78450739     6    122    0    0    0
H -77.80080101 -42.64602937 -20.68643275     6    122    0    0    0
H -77.35800638 -44.24748830 -23.65106710     6    122    0    0    0
H -64.49844811 -9.43144218 -17.74573772     6     127    0    0    0
C -63.82311388 -11.38870479 -18.01689410     1     126    128    129    130
H -65.40384593 -12.35076429 -18.72455185     6     127    0    0    0
H -62.20501416 -11.58217588 -19.32238784     6     127    0    0    0
C -63.19050808 -12.73157176 -15.58046138     2     127    131    132    133
H -64.77686702 -12.40839968 -14.21053853     6     130    0    0    0
H -62.95882579 -14.76732770 -15.92207536     6     130    0    0    0
C -60.73623574 -12.02386092 -14.24119101     2     130    134   135   136
H -59.01652832 -12.19473788 -15.37254893     6     133    0    0    0
H -60.94337026 -10.09602817 -13.63005410     6     133    0    0    0
C -60.15113799 -13.65809947 -12.14125702     2     133   137   138   139
H -61.81046144 -13.77335814 -10.98903658     6    136    0    0    0
H -59.73649677 -15.67623940 -12.51477425     6    136    0    0    0
C -58.17834285 -12.53995179 -10.44335772     2    136   140   141   142
H -56.48495759 -11.98146163 -11.41694642     6    139    0    0    0
H -59.07080708 -10.90306983 -9.71446056     6    139    0    0    0
C -57.63676330 -14.21725829 -8.28716999     2    139   143   144   145
H -59.37831892 -14.38051139 -7.01424770     6    142    0    0    0
H -57.26831648 -16.20041850 -8.99887717     6    142    0    0    0
C -55.41770933 -13.18387575 -6.77034158     2    142   146   147   148
H -53.86385149 -12.72160195 -8.07698100     6    145    0    0    0
H -55.88026150 -11.42915702 -5.89711639     6    145    0    0    0
C -54.34427058 -15.18461820 -5.00956144     2    145   149   150   151
H -55.81705354 -16.13205707 -3.83759454     6    148    0    0    0
H -53.56218094 -16.50934088 -6.19246120     6    148    0    0    0
C -52.14838908 -14.28067200 -3.42633795     2    148   152   153   154
H -50.89957010 -13.04035273 -4.52312639     6    151    0    0    0
H -52.83175086 -13.19159430 -1.67118749     6    151    0    0    0
C -50.53208903 -16.50606936 -2.33409433     2    151   155   156   157
H -49.24333952 -15.65116434 -0.97249868     6    154    0    0    0
H -51.89288629 -17.90231044 -1.61492321     6    154    0    0    0
C -48.58565831 -17.63459663 -4.11300638     2    154   158   159   160
H -49.52718404 -18.83195136 -5.41398785     6    157    0    0    0
H -47.69574826 -16.20219459 -5.30061275     6    157    0    0    0
C -46.31516189 -19.05548519 -2.98587547     1    157   161   162   163
H -45.37887083 -20.36650379 -4.23261819     6    160    0    0    0
H -47.00641363 -19.90371845 -1.33707767     6    160    0    0    0
H -44.98894061 -17.68386631 -2.33869645     6    160    0    0    0
H -81.61363032 -16.77500386 -10.59962469     6     165    0    0    0
C -81.48289007 -15.97286077 -12.47956775     1     164    166    167    168
H -82.36234869 -17.21178221 -13.69668336     6     165    0    0    0
H -82.55484851 -14.18611626 -12.39836727     6     165    0    0    0
C -78.63446161 -15.56981333 -13.30781615     2     165    169    170    171
H -77.52274649 -16.92140122 -12.23234414     6     168    0    0    0
H -78.27306902 -15.89738694 -15.31742308     6     168    0    0    0
C -77.68858415 -12.97308956 -12.90394020     2     168    172   173   174
H -79.01790235 -11.72068964 -13.93404349     6     171    0    0    0
H -77.65536541 -12.60816843 -10.83468164     6     171    0    0    0
C -74.83099993 -12.38752263 -13.77189273     2     171   175   176   177
H -73.60595100 -13.87465871 -13.03530294     6    174    0    0    0
H -74.64288466 -12.67300568 -15.77967566     6    174    0    0    0
C -73.97214869 -9.81001806 -12.85157157     2    174   178   179   180
H -75.03103994 -8.27227483 -13.69489646     6    177    0    0    0
H -74.51749237 -9.74138543 -10.85488099     6    177    0    0    0
C -71.22999726 -9.49101737 -13.37058962     2    177   181   182   183
H -70.07550919 -10.98368488 -12.54622628     6    180    0    0    0
H -71.07040050 -9.47505685 -15.48316056     6    180    0    0    0
C -70.48904021 -6.83381071 -12.41251797     2    180   184   185   186
H -71.81962039 -5.29503696 -12.91484085     6    183    0    0    0
H -70.68806616 -6.88008942 -10.39685196     6    183    0    0    0
C -67.80656878 -6.10291952 -12.98693736     2    183   187   188   189
H -66.57163694 -7.51544771 -12.68366288     6    186    0    0    0
H -67.35063386 -5.95276547 -14.99280663     6    186    0    0    0
C -66.68881533 -3.92076992 -11.51268017     2    186   190   191   192
H -67.90893029 -2.23632248 -11.69350541     6    189    0    0    0
H -66.96625521 -4.33713138 -9.45765647     6    189    0    0    0
C -63.67367471 -3.71249617 -11.73674490     2    189   193   194   195
H -62.58012503 -5.25869721 -11.01322071     6    192    0    0    0
H -62.98290683 -3.49016057 -13.57311226     6    192    0    0    0
C -62.66293919 -1.08062453 -10.45711511     2    192   196   197   198
H -63.41498102 0.33062635 -11.83027578     6    195    0    0    0
H -63.56388739 -0.71200058 -8.64122806     6    195    0    0    0
C -59.78514333 -1.08416252 -10.21912742     1    195   199   200   201
H -58.77812433 0.63338890 -9.69120543     6    198    0    0    0
H -58.92251311 -1.71246372 -11.89540679     6    198    0    0    0
H -59.45812998 -2.41705238 -8.75265908     6    198    0    0    0
H -88.28489701 -18.99839487 -1.70273456     6     203    0    0    0
C -88.60255173 -18.24926003 -3.54540195     1     202    204    205    206
H -87.78900407 -19.40526947 -5.07787579     6     203    0    0    0
H -90.54621761 -18.09735929 -4.18893912     6     203    0    0    0
C -87.62344564 -15.47043683 -3.96366826     2     203    207    208    209
H -85.65012998 -15.51332670 -3.82069079     6     206    0    0    0
H -87.99574286 -14.99120271 -5.92314045     6     206    0    0    0
C -88.80815874 -13.47132139 -2.15475956     2     206    210   211   212
H -87.83989135 -11.75385967 -2.45198507     6     209    0    0    0
H -90.79981025 -13.13287428 -2.71731155     6     209    0    0    0
C -88.63184597 -14.28432846 0.62133338     2     209   213   214   215
H -90.22334787 -15.65123021 0.96790816     6    212    0    0    0
H -86.88245034 -15.25128136 0.82535242     6    212    0    0    0
C -88.52918709 -11.98573686 2.47831419     2    212   216   217   218
H -87.21503834 -10.61507806 1.67316444     6    215    0    0    0
H -90.45478301 -11.12575984 2.73442934     6    215    0    0    0
C -87.41956193 -12.64122207 5.10448204     2    215   219   220   221
H -88.11869007 -14.31671150 6.00267530     6    218    0    0    0
H -85.43852026 -13.03012324 4.61459214     6    218    0    0    0
C -87.41989789 -10.30776559 6.71919019     2    218   222   223   224
H -86.39841847 -8.75249843 5.81640519     6    221    0    0    0
H -89.32717232 -9.72333391 6.93768289     6    221    0    0    0
C -85.95178586 -10.49224899 9.27370443     2    221   225   226   227
H -86.86602548 -11.85089922 10.45259770     6    224    0    0    0
H -83.97725628 -11.16491287 8.92831960     6    224    0    0    0
C -85.80356444 -7.98438057 10.72057181     2    224   228   229   230
H -84.87393900 -6.51255487 9.67817154     6    227    0    0    0
H -87.66427538 -7.35046163 11.01706682     6    227    0    0    0
C -84.48920469 -8.56106405 13.23484503     2    227   231   232   233
H -85.36972264 -10.08202146 14.26064096     6    230    0    0    0
H -82.62597652 -9.17464927 12.63895018     6    230    0    0    0
C -84.35994240 -6.41443671 15.18438849     2    230   234   235   236
H -83.97611647 -4.68964032 14.17707920     6    233    0    0    0
H -86.19554192 -6.17596994 16.04856105     6    233    0    0    0
C -82.43438858 -6.98757046 17.28179322     1    233   237   238   239
H -83.34102032 -6.13440511 18.93582787     6    236    0    0    0
H -80.65148142 -5.96244475 17.10390000     6    236    0    0    0
H -82.21234835 -8.94794964 17.72237452     6    236    0    0    0
H -88.65166262 -34.18313310 1.17867638     6     241    0    0    0
C -87.01316150 -35.31979680 0.61565119     1     240    242    243    244
H -86.50368463 -34.74736703 -1.24093510     6     241    0    0    0
H -85.52639926 -34.90677874 2.01143989     6     241    0    0    0
C -87.63025183 -38.24518350 0.66074290     2     241    245    246    247
H -88.92377862 -38.68356562 -0.80336312     6     244    0    0    0
H -85.92556006 -39.17382545 0.59363018     6     244    0    0    0
C -89.22392083 -38.85233489 2.94929260     2     244    248   249   250
H -88.16717989 -38.44936711 4.62532572     6     247    0    0    0
H -91.01555285 -37.76693006 3.05807404     6     247    0    0    0
C -89.91661390 -41.71358959 3.08706348     2     247   251   252   253
H -91.62190246 -41.87006665 4.40848436     6    250    0    0    0
H -90.53755624 -42.40099307 1.25293882     6    250    0    0    0
C -87.58256432 -43.25120828 4.06960364     2    250   254   255   256
H -85.80197521 -42.27660588 3.55886804     6    253    0    0    0
H -87.61555720 -43.32918488 6.17389013     6    253    0    0    0
C -87.44990960 -46.00037783 3.13487863     2    253   257   258   259
H -85.91994874 -47.06206525 4.02642784     6    256    0    0    0
H -89.18182593 -46.86335538 3.64518676     6    256    0    0    0
C -86.73287011 -46.27678012 0.36153494     2    256   260   261   262
H -87.90117699 -45.10823658 -0.88825866     6    259    0    0    0
H -84.97801064 -45.21707905 0.15146370     6    259    0    0    0
C -86.43307033 -49.11070411 -0.18352731     2    259   263   264   265
H -85.39205441 -50.09276782 1.41845476     6    262    0    0    0
H -88.33429955 -49.87076871 -0.26784549     6    262    0    0    0
C -84.96630962 -49.69595624 -2.46443052     2    262   266   267   268
H -85.19182947 -48.09663443 -3.81127645     6    265    0    0    0
H -83.05553205 -49.81684229 -1.87679150     6    265    0    0    0
C -85.56951803 -52.14282214 -3.81206419     2    265   269   270   271
H -85.28864176 -53.71252934 -2.51700645     6    268    0    0    0
H -87.66750283 -52.02020542 -4.31085856     6    268    0    0    0
C -83.79389818 -52.54214710 -6.17966961     2    268   272   273   274
H -85.09596117 -53.17832081 -7.73154628     6    271    0    0    0
H -83.38987286 -50.69294259 -6.70035243     6    271    0    0    0
C -81.35282349 -53.89912677 -5.66098844     1    271   275   276   277
H -80.35879178 -53.11440936 -3.99519775     6    274    0    0    0
H -80.11008330 -54.06896590 -7.20964052     6    274    0    0    0
H -81.94373010 -55.71779186 -4.98925590     6    274    0    0    0
H -82.07339140 -25.40366107 -12.97158387     6     279    0    0    0
C -83.96797529 -26.11414086 -12.27617393     1     278    280    281    282
H -85.50655375 -24.81263069 -12.62748304     6     279    0    0    0
H -84.47107196 -27.92685110 -13.00922337     6     279    0    0    0
C -84.01467766 -26.27829495 -9.43245381     2     279    283    284    285
H -82.95562541 -27.94538108 -8.99436522     6     282    0    0    0
H -83.11120681 -24.62264056 -8.79141089     6     282    0    0    0
C -86.58603630 -26.61930960 -8.13657743     2     282    286   287   288
H -88.11487368 -25.44526975 -8.92862671     6     285    0    0    0
H -87.47763775 -28.54379200 -8.42396713     6     285    0    0    0
C -86.35464697 -25.98389591 -5.29617115     2     285   289   290   291
H -84.58274450 -26.31557081 -4.53406135     6    288    0    0    0
H -86.56624843 -23.93367347 -5.04258960     6    288    0    0    0
C -88.11677750 -27.51887836 -3.47639868     2    288   292   293   294
H -89.97363926 -26.88285500 -4.07209365     6    291    0    0    0
H -88.08172120 -29.56310379 -3.63868486     6    291    0    0    0
C -87.59197386 -26.85637744 -0.67951764     2    291   295   296   297
H -85.67885379 -27.33848060 -0.18363246     6    294    0    0    0
H -87.62823651 -24.90334652 -0.19446314     6    294    0    0    0
C -89.33886866 -28.22726276 1.16627128     2    294   298   299   300

   17   -1830.5192158359      6.43E-09 Convergence criterion met
 Total energy in the final basis set = -1828.21909911
 Total job time:  16.42s(wall), 29.72s(cpu)
        *  Thank you very much for using Q-Chem.  Have a nice day.  *

User input: 2 of 2

                  Welcome to Q-Chem
     A Quantum Leap Into The Future Of Chemistry

 Q-Chem 5.4 (devel), Q-Chem, Inc., Pleasanton, CA (2021)

 E. Epifanovsky,  A. T. B. Gilbert,  Xintian Feng,  Joonho Lee,  Yuezhi Mao,
 N. Mardirossian,  P. Pokhilko,  A. White,  M. Wormit,  M. P. Coons,
 A. L. Dempwolff,  Zhengting Gan,  D. Hait,  P. R. Horn,  L. D. Jacobson,
 I. Kaliman,  J. Kussmann,  A. W. Lange,  Ka Un Lao,  D. S. Levine,  Jie Liu,
 S. C. McKenzie,  A. F. Morrison,  K. Nanda,  F. Plasser,  D. R. Rehn,
 M. L. Vidal,  Zhi-Qiang You,  Ying Zhu,  B. Alam,  B. Albrecht,
 A. Aldossary,  E. Alguire,  J. H. Andersen,  D. Barton,  K. Begam,  A. Behn,
 Y. A. Bernard,  E. J. Berquist,  H. Burton,  A. Carreras,  K. Carter-Fenk,
 R. Chakraborty,  A. D. Chien,  K. D. Closser,  V. Cofer-Shabica,
 S. Dasgupta,  Jia Deng,  M. de Wergifosse,  M. Diedenhofen,  Hainam Do,
 S. Ehlert,  Po-Tung Fang,  S. Fatehi,  Qingguo Feng,  T. Friedhoff,
 J. Gayvert,  Qinghui Ge,  G. Gidofalvi,  M. Goldey,  J. Gomes,
 C. Gonzalez-Espinoza,  S. Gulania,  A. Gunina,  M. W. D. Hanson-Heine,
 P. H. P. Harbach,  A. W. Hauser,  M. F. Herbst,  M. Hernandez Vera,
 M. Hodecker,  Z. C. Holden,  S. Houck,  Xunkun Huang,  Kerwin Hui,
 B. C. Huynh,  M. Ivanov,  Hyunjun Ji,  Hanjie Jiang,  B. Kaduk,  S. Kaehler,
 K. Khistyaev,  Jaehoon Kim,  P. Klunzinger,  Z. Koczor-Benda,
 Joong Hoon Koh,  D. Kosenkov,  L. Koulias,  T. Kowalczyk,  C. M. Krauter,
 K. Kue,  A. Kunitsa,  T. Kus,  A. Landau,  K. V. Lawler,  D. Lefrancois,
 S. Lehtola,  Rain Li,  Yi-Pei Li,  Jiashu Liang,  M. Liebenthal,
 Hung-Hsuan Lin,  You-Sheng Lin,  Fenglai Liu,  Kuan-Yu Liu,
 M. Loipersberger,  A. Luenser,  A. Manjanath,  P. Manohar,  E. Mansoor,
 S. F. Manzer,  Shan-Ping Mao,  A. V. Marenich,  T. Markovich,  S. Mason,
 S. A. Maurer,  P. F. McLaughlin,  M. F. S. J. Menger,  J.-M. Mewes,
 S. A. Mewes,  P. Morgante,  J. W. Mullinax,  K. J. Oosterbaan,  G. Paran,
 Alexander C. Paul,  Suranjan K. Paul,  F. Pavosevic,  Zheng Pei,  S. Prager,
 E. I. Proynov,  E. Ramos,  B. Rana,  A. E. Rask,  A. Rettig,  R. M. Richard,
 F. Rob,  E. Rossomme,  T. Scheele,  M. Scheurer,  M. Schneider,
 N. Sergueev,  S. M. Sharada,  W. Skomorowski,  D. W. Small,  C. J. Stein,
 Yu-Chuan Su,  E. J. Sundstrom,  Zhen Tao,  J. Thirman,  T. Tsuchimochi,
 N. M. Tubman,  S. P. Veccham,  O. Vydrov,  J. Wenzel,  J. Witte,  A. Yamada,
 Kun Yao,  S. Yeganeh,  S. R. Yost,  A. Zech,  Igor Ying Zhang,  Xing Zhang,
 Yu Zhang,  D. Zuev,  A. Aspuru-Guzik,  A. T. Bell,  N. A. Besley,
 K. B. Bravaya,  B. R. Brooks,  D. Casanova,  Jeng-Da Chai,  S. Coriani,
 C. J. Cramer,  A. E. DePrince, III,  R. A. DiStasio Jr.,  A. Dreuw,
 B. D. Dunietz,  T. R. Furlani,  W. A. Goddard III,  S. Grimme,
 S. Hammes-Schiffer,  T. Head-Gordon,  W. J. Hehre,  Chao-Ping Hsu,
 T.-C. Jagau,  Yousung Jung,  A. Klamt,  Jing Kong,  D. S. Lambrecht,
 WanZhen Liang,  N. J. Mayhall,  C. W. McCurdy,  J. B. Neaton,
 C. Ochsenfeld,  J. A. Parkhill,  R. Peverati,  V. A. Rassolov,  Yihan Shao,
 L. V. Slipchenko,  T. Stauch,  R. P. Steele,  J. E. Subotnik,
 A. J. W. Thom,  A. Tkatchenko,  D. G. Truhlar,  T. Van Voorhis,
 T. A. Wesolowski,  K. B. Whaley,  H. L. Woodcock III,  P. M. Zimmerman,
 S. Faraji,  P. M. W. Gill,  M. Head-Gordon,  J. M. Herbert,  A. I. Krylov

 Additional authors for Version 5.4.1:
 S. Kotaru,  Shaozhi Li,  Xiangyuan Li,  F. Matz,  A. Molle,  Haisheng Ren,
 Yingli Su,  Hung-Yi Tsai,  C. Utku,  Fang Wang

 Contributors to earlier versions of Q-Chem not listed above:
 R. D. Adamson,  B. Austin,  R. Baer,  J. Baker,  G. J. O. Beran,
 K. Brandhorst,  S. T. Brown,  E. F. C. Byrd,  A. K. Chakraborty,
 G. K. L. Chan,  Chun-Min Chang,  Yunqing Chen,  C.-L. Cheng,
 Siu Hung Chien,  D. M. Chipman,  D. L. Crittenden,  H. Dachsel,
 R. J. Doerksen,  A. D. Dutoi,  R. G. Edgar,  J. Fosso-Tande,
 L. Fusti-Molnar,  D. Ghosh,  A. Ghysels,  A. Golubeva-Zadorozhnaya,
 J. Gonthier,  M. S. Gordon,  S. R. Gwaltney,  G. Hawkins,  J. E. Herr,
 A. Heyden,  S. Hirata,  E. G. Hohenstein,  G. Kedziora,  F. J. Keil,
 C. Kelley,  Jihan Kim,  R. A. King,  R. Z. Khaliullin,  P. P. Korambath,
 W. Kurlancheek,  A. Laurent,  A. M. Lee,  M. S. Lee,  S. V. Levchenko,
 Ching Yeh Lin,  D. Liotard,  E. Livshits,  R. C. Lochan,  I. Lotan,
 L. A. Martinez-Martinez,  P. E. Maslen,  N. Nair,  D. P. O'Neill,
 D. Neuhauser,  E. Neuscamman,  C. M. Oana,  R. Olivares-Amaya,  R. Olson,
 T. M. Perrine,  B. Peters,  P. A. Pieniazek,  A. Prociuk,  Y. M. Rhee,
 J. Ritchie,  M. A. Rohrdanz,  E. Rosta,  N. J. Russ,  H. F. Schaefer III,
 M. W. Schmidt,  N. E. Schultz,  S. Sharma,  N. Shenvi,  C. D. Sherrill,
 A. C. Simmonett,  A. Sodt,  T. Stein,  D. Stuck,  K. S. Thanthiriwatte,
 V. Vanovschi,  L. Vogt,  Tao Wang,  A. Warshel,  M. A. Watson,
 C. F. Williams,  Q. Wu,  X. Xu,  Jun Yang,  W. Zhang,  Yan Zhao

 Please cite Q-Chem as follows:
 Y. Shao et al., Mol. Phys. 113, 184-215 (2015)
 DOI: 10.1080/00268976.2014.952696

 Q-Chem 5.4.1 for Intel X86 EM64T Linux

 Parts of Q-Chem use Armadillo 9.900.5 (Nocturnal Misbehaviour).
 http://arma.sourceforge.net/

 Q-Chem begins on Wed Jun 22 16:41:40 2022

 Host: p09r14n13.grace.hpc.yale.internal
0

     Scratch files written to /home/tl686/scratch60/qchem_dev/scratch/qchem247042//
 Processing $rem in /home/tl686/qchem_dev/qchem/config/preferences:
 Processing $rem in /home/tl686/.qchemrc:
Applying user defined connections for MM calculations
The previous job contains 0 fragments, simply inherited here

 Checking the input file for inconsistencies... 	...done.

--------------------------------------------------------------
User input:
--------------------------------------------------------------

$molecule
READ
$end

$qm_atoms
1:11
$end

$force_field_params
NumAtomTypes 3
AtomType -1   0.0238     3.11   0.2868
AtomType -2   0.07124    3.30   0.6597
AtomType -3  -0.0760     3.09   0.1434
$end

$rem
     JOBTYPE  freq
     METHOD   bp86
     BASIS    def2-msvp
     MAX_SCF_CYCLES   800
     INPUT_BOHR TRUE
     SYM_IGNORE TRUE
     SCF_GUESS     read
     user_connect            true
     qm_mm_interface         ONIOM
     force_field             oplsaa
$end

--------------------------------------------------------------

    3   -1830.5192158361      7.92E-09 Convergence criterion met
 Total energy in the final basis set = -1828.21909911

                    Orbital Energies (a.u.)
 --------------------------------------------------------------

 Alpha MOs
 -- Occupied --
******** -29.6362 -25.5956 -25.5836 -25.5793 -18.8912 -18.8872 -18.8829
-18.8714 -18.8670 -10.0574 -10.0548 -10.0465 -10.0457 -10.0309  -3.3210
 -2.1558  -2.1326  -2.1249  -1.0821  -1.0673  -1.0561  -1.0458  -1.0223
 -0.5744  -0.5287  -0.5216  -0.5140  -0.5118  -0.4604  -0.4541  -0.4469
 -0.4401  -0.4330  -0.4297  -0.4252  -0.4211  -0.4139  -0.4126  -0.4037
 -0.4033  -0.3958  -0.3938  -0.3789  -0.2789  -0.2713  -0.2342  -0.2231

          Ground-State Mulliken Net Atomic Charges

     Atom                 Charge (a.u.)
  ----------------------------------------
      1 Fe                   -0.497864
      2 C                     0.193027
      3 C                     0.208657
      4 C                     0.221478
      5 C                     0.223694
      6 C                     0.205049
      7 O                    -0.079963
      8 O                    -0.113705
      9 O                    -0.117799
     10 O                    -0.151736
     11 O                    -0.090836
  ----------------------------------------
  Sum of atomic charges =     0.000000

                    Cartesian Multipole Moments
 -----------------------------------------------------------------
    Charge (ESU x 10^10)
                -0.0000
    Dipole Moment (Debye)
         X       0.3351880342      Y      -0.3240494475      Z       0.1008162219
       Tot       0.4769936826
    Quadrupole Moments (Debye-Ang)
        XX     -91.1159     XY       4.1604     YY     -58.5517
        XZ      -1.4458     YZ      -2.0299     ZZ     -68.2971
