 Q-Chem 5.4 (devel), Q-Chem, Inc., Pleasanton, CA (2021)
 Q-Chem 5.4.1 for Intel X86 EM64T Linux

User input:
--------------------------------------------------------------
$molecule
0   1
 Fe 841.84460094 -63.38717975 50.29576269    -1  0   0   0   0
C 841.34238420 -66.68369362 51.35656429    -2  0   0   0   0
C 842.57713866 -60.18086784 49.54749024    -2  0   0   0   0
C 838.57932539 -62.67291961 50.44351889    -2  0   0   0   0
C 843.76594840 -62.98924035 53.20387074    -2  0   0   0   0
C 843.23913852 -64.84186749 47.45505405    -2  0   0   0   0
O 841.10025045 -68.73297832 52.05766815    -3  0   0   0   0
O 843.05368241 -58.16620140 48.94670739    -3  0   0   0   0
O 836.10951261 -62.33309804 51.09208047    -3  0   0   0   0
O 845.04808478 -62.42035884 55.06251253    -3  0   0   0   0
O 844.06007797 -65.82429303 45.71572974    -3  0   0   0   0
H 821.33667770 -82.17026244 62.82893828      6     13    0    0    0
C 822.29800821 -83.74206977 63.88336917     1     12    14    15    16
H 821.00847126 -85.37976753 64.01891814     6     13    0    0    0
H 823.97664064 -84.37752565 62.77197445     6     13    0    0    0
C 822.92478263 -82.81135452 66.56718247     2     13    17    18    19
H 821.15538445 -82.47064845 67.33979840     6     16    0    0    0
H 823.45826662 -84.28095070 67.80167113     6     16    0    0    0
C 824.42982357 -80.35527300 66.75761047     2     16    20   21   22
H 823.84128290 -79.10532832 65.16205916     6     19    0    0    0
H 823.89640383 -79.47451858 68.50324548     6     19    0    0    0
C 827.20096314 -81.11571253 66.82016248     2     19   23   24   25
H 826.91923938 -82.23839665 68.49590392     6    22    0    0    0
H 827.55916135 -82.30125288 65.29708459     6    22    0    0    0
C 828.99844585 -78.98683271 67.51790174     2    22   26   27   28
H 829.03520821 -77.35929694 66.05138895     6    25    0    0    0
H 828.70946040 -78.34794178 69.46885792     6    25    0    0    0
C 831.74832346 -79.89440536 67.38302337     2    25   29   30   31
H 831.81778713 -81.71723092 68.51887577     6    28    0    0    0
H 832.13210811 -80.36126149 65.38673508     6    28    0    0    0
C 833.60801253 -78.14515422 68.58989572     2    28   32   33   34
H 833.24894502 -76.13782206 68.02398924     6    31    0    0    0
H 833.34871733 -78.20951948 70.71068674     6    31    0    0    0
C 836.39345099 -78.94144658 68.07266961     2    31   35   36   37
H 836.75087157 -81.02276882 68.28469546     6    34    0    0    0
H 836.72955716 -78.82491733 65.93323718     6    34    0    0    0
C 838.26534635 -77.64384590 69.68358408     2    34   38   39   40
H 838.00036758 -75.64084043 69.65503855     6    37    0    0    0
H 837.84651271 -78.01551619 71.62345274     6    37    0    0    0
C 841.09095252 -78.07846358 69.05945634     2    37   41   42   43
H 841.36779717 -77.49176013 67.07914852     6    40    0    0    0
H 842.22822093 -76.84579989 70.13059486     6    40    0    0    0
C 841.86861722 -80.83867722 69.50125375     2    40   44   45   46
H 841.29735214 -81.47389077 71.29903837     6    43    0    0    0
H 840.85572211 -81.87079566 68.06947469     6    43    0    0    0
C 844.82518717 -81.13268625 69.26770424     1    43   47   48   49
H 845.82380028 -80.63634843 71.04037293     6    46    0    0    0
H 845.52027489 -80.04767406 67.65939627     6    46    0    0    0
H 845.31512480 -83.20316962 69.25364599     6    46    0    0    0
H 848.21102245 -69.92186294 57.68978076     6     51    0    0    0
C 846.47811250 -69.13218713 56.96483185     1     50    52    53    54
H 846.80291320 -67.07137139 56.87387493     6     51    0    0    0
H 846.06867668 -69.86441583 55.16656748     6     51    0    0    0
C 844.47700106 -69.67461839 58.97899301     2     51    55    56    57
H 842.67626484 -69.19205672 58.36230013     6     54    0    0    0
H 844.65030164 -71.66469461 59.36434830     6     54    0    0    0
C 845.07746236 -68.18712665 61.32793528     2     54    58   59   60
H 845.68425304 -66.30500482 60.77562771     6     57    0    0    0
H 843.36124146 -67.93078237 62.42796238     6     57    0    0    0
C 846.94292213 -69.46029646 63.00393195     2     57   61   62   63
H 846.10690916 -71.28036275 63.52023739     6    60    0    0    0
H 848.67976704 -69.81644928 61.86882659     6    60    0    0    0
C 847.50451992 -67.89202122 65.33457983     2    60   64   65   66
H 848.15053573 -66.00199399 64.87847540     6    63    0    0    0
H 845.60883661 -67.68484931 66.35489610     6    63    0    0    0
C 849.37450658 -69.11923826 67.18293291     2    63   67   68   69
H 849.65082493 -67.86769046 68.74001992     6    66    0    0    0
H 848.56726602 -70.82998574 67.88681621     6    66    0    0    0
C 851.94259672 -69.74939784 66.11255003     2    66   70   71   72
H 851.88549772 -71.20595462 64.67890294     6    69    0    0    0
H 852.72400079 -68.08635328 65.10007747     6    69    0    0    0
C 853.82707405 -70.58082286 68.19797565     2    69   73   74   75
H 854.53231519 -69.12591258 69.42866188     6    72    0    0    0
H 852.56483598 -71.94070095 69.29820856     6    72    0    0    0
C 855.95914223 -72.28281754 67.20901683     2    72   76   77   78
H 855.33241239 -73.52043824 65.68844869     6    75    0    0    0
H 857.40575852 -71.27445560 66.34102704     6    75    0    0    0
C 857.04622711 -73.71349078 69.52536306     2    75   79   80   81
H 857.86573788 -72.51799571 70.97776026     6    78    0    0    0
H 855.57114941 -74.90280355 70.41769406     6    78    0    0    0
C 859.23934499 -75.54914254 68.97892180     2    78   82   83   84
H 858.63963165 -76.96251942 67.63785617     6    81    0    0    0
H 860.68677351 -74.58592698 68.02421084     6    81    0    0    0
C 860.47360368 -76.56804582 71.29114836     1    81   85   86   87
H 862.04803701 -77.70706665 70.70762158     6    84    0    0    0
H 859.20404468 -77.80107313 72.54788707     6    84    0    0    0
H 860.85724077 -74.98014277 72.57231849     6    84    0    0    0
H 829.19577235 -59.01545563 81.96534637     6     89    0    0    0
C 831.25593330 -59.39031803 82.03912690     1     88    90    91    92
H 831.87935945 -59.42125568 80.10338010     6     89    0    0    0
H 832.17112840 -57.79570830 82.99579030     6     89    0    0    0
C 831.84489645 -62.01970126 83.37472880     2     89    93    94    95
H 830.93306440 -62.34667669 85.11022612     6     92    0    0    0
H 830.80645287 -63.44446024 82.13989673     6     92    0    0    0
C 834.64898290 -62.32298972 83.70084547     2     92    96   97   98
H 835.47815972 -61.73404417 81.96215856     6     95    0    0    0
H 835.23801434 -61.23035398 85.27564180     6     95    0    0    0
C 835.29788502 -65.15145711 84.56758905     2     95   99   100   101
H 834.23901622 -65.77423300 86.13117999     6    98    0    0    0
H 834.72653028 -66.43929147 83.04716245     6    98    0    0    0
C 838.23613005 -65.51149889 85.10184847     2    98   102   103   104
H 839.15170451 -64.90328141 83.41062514     6    101    0    0    0
H 838.89057482 -64.15385571 86.35584464     6    101    0    0    0
C 838.93770662 -68.30822583 85.98641648     2    101   105   106   107
H 838.10040352 -68.49773397 87.85349981     6    104    0    0    0
H 837.98318674 -69.79215704 84.82729684     6    104    0    0    0
C 841.84724486 -68.63914151 85.98037852     2    104   108   109   110
H 842.65129004 -68.56773813 84.04059637     6    107    0    0    0
H 842.63213270 -66.82022991 86.57132846     6    107    0    0    0
C 842.76183591 -70.95236288 87.43944016     2    107   111   112   113
H 841.81407168 -71.11559537 89.22081992     6    110    0    0    0
H 842.28421998 -72.56155348 86.27741474     6    110    0    0    0
C 845.59456511 -70.73398265 87.91189146     2    110   114   115   116
H 846.51639736 -70.17850877 86.15445980     6    113    0    0    0
H 845.99021998 -68.98056958 88.97802928     6    113    0    0    0
C 846.78679656 -72.94627418 89.26711762     2    113   117   118   119
H 846.19179303 -73.09977937 91.21118555     6    116    0    0    0
H 846.34241268 -74.72681338 88.23239742     6    116    0    0    0
C 849.65627637 -73.36092452 89.47389400     2    116   120   121   122
H 850.08237950 -74.84040213 90.81505729     6    119    0    0    0
H 850.55028246 -73.90219986 87.63716257     6    119    0    0    0
C 850.95569186 -70.94533237 90.43559019     1    119   123   124   125
H 852.92087433 -71.30726532 90.50102861     6    122    0    0    0
H 850.34966742 -70.05791473 92.11838114     6    122    0    0    0
H 850.78010781 -69.43203045 89.08113756     6    122    0    0    0
H 830.14956926 -46.92748434 76.45427045     6     127    0    0    0
C 830.55064916 -46.33672196 74.57812780     1     126    128    129    130
H 829.41412594 -44.57884456 74.11456996     6     127    0    0    0
H 832.56947721 -45.86593850 74.43244929     6     127    0    0    0
C 829.89288344 -48.45833572 72.78640921     2     127    131    132    133
H 830.83425645 -50.24182088 73.24946396     6     130    0    0    0
H 827.87564625 -48.79609368 73.02925612     6     130    0    0    0
C 830.47351489 -47.78160397 70.05327924     2     130    134   135   136
H 829.10056502 -46.39945592 69.49619782     6     133    0    0    0
H 832.31456476 -47.07531937 69.89462967     6     133    0    0    0
C 830.02392018 -50.16429627 68.28775611     2     133   137   138   139
H 831.41787480 -51.63649537 68.73316499     6    136    0    0    0
H 828.33649816 -51.19509296 68.87947522     6    136    0    0    0
C 829.98833645 -49.69462230 65.36447670     2    136   140   141   142
H 828.63019321 -48.18249928 64.74864937     6    139    0    0    0
H 831.85876445 -49.19063923 64.58212101     6    139    0    0    0
C 829.15451109 -51.96671812 63.86660768     2    139   143   144   145
H 830.67718382 -53.28746952 64.01345847     6    142    0    0    0
H 827.28356783 -52.82977322 64.30387657     6    142    0    0    0
C 829.00598038 -51.44183538 60.93329000     2    142   146   147   148
H 827.93002694 -49.80224804 60.34605389     6    145    0    0    0
H 830.89852068 -50.71073714 60.36788946     6    145    0    0    0
C 828.10329502 -53.66158665 59.26702772     2    145   149   150   151
H 829.56238282 -55.13461201 59.39916706     6    148    0    0    0
H 826.36249085 -54.45817978 60.02252088     6    148    0    0    0
C 827.72560202 -52.81114936 56.51812890     2    148   152   153   154
H 827.09688939 -50.83624056 56.30752873     6    151    0    0    0
H 829.52280908 -52.78761076 55.38306726     6    151    0    0    0
C 825.74385699 -54.56124913 55.29689647     2    151   155   156   157
H 826.48419996 -55.04827503 53.48880943     6    154    0    0    0
H 825.79841485 -56.30960470 56.35835736     6    154    0    0    0
C 822.89936510 -53.70600613 55.14455936     2    154   158   159   160
H 821.82084483 -53.85258284 56.83124014     6    157    0    0    0
H 822.75849579 -51.68997844 54.67769566     6    157    0    0    0
C 821.71401173 -54.84834741 52.86264139     1    157   161   162   163
H 819.63058328 -54.80586120 52.92555087     6    160    0    0    0
H 822.04761119 -56.94215122 52.76817655     6    160    0    0    0
H 822.37732432 -54.18109338 51.04179657     6    160    0    0    0
H 841.32376831 -48.03969415 83.52497650     6     165    0    0    0
C 839.79276173 -46.87530826 82.76860062     1     164    166    167    168
H 838.14571137 -48.10984995 82.26679001     6     165    0    0    0
H 839.20218971 -45.69038470 84.25602236     6     165    0    0    0
C 840.61378780 -45.28815158 80.51450814     2     165    169    170    171
H 841.90080127 -43.65431649 81.08730689     6     168    0    0    0
H 841.65959512 -46.46629615 79.15057990     6     168    0    0    0
C 838.17366692 -44.30012033 79.21239584     2     168    172   173   174
H 837.03547268 -45.82963182 78.45110722     6     171    0    0    0
H 836.92405762 -43.29822397 80.44850709     6     171    0    0    0
C 838.82972224 -42.32015431 77.29043099     2     171   175   176   177
H 839.68425329 -40.90936307 78.55091562     6    174    0    0    0
H 840.28775061 -42.63182848 75.81863460     6    174    0    0    0
C 836.44946996 -41.19533646 75.92681558     2    174   178   179   180
H 835.34980690 -42.68366551 74.87138522     6    177    0    0    0
H 835.15582747 -40.43558236 77.29870354     6    177    0    0    0
C 837.31398533 -39.00065527 74.18921353     2    177   181   182   183
H 838.51903254 -37.59419244 75.13242116     6    180    0    0    0
H 838.39559569 -39.63739756 72.58180244     6    180    0    0    0
C 834.96022881 -37.84297691 73.02663793     2    180   184   185   186
H 833.86710667 -39.24623735 72.07481999     6    183    0    0    0
H 833.81465671 -37.26626693 74.75602435     6    183    0    0    0
C 835.45961022 -35.65296454 70.94752664     2    183   187   188   189
H 836.52124270 -34.12563194 71.85649721     6    186    0    0    0
H 836.62924727 -36.09606876 69.31462317     6    186    0    0    0
C 832.97758221 -34.79340398 69.65300911     2    186   190   191   192
H 831.69160994 -36.24716950 68.96818873     6    189    0    0    0
H 831.82867801 -33.52469185 70.80005504     6    189    0    0    0
C 833.60099931 -32.91175928 67.63076780     2    189   193   194   195
H 834.72989657 -31.24776605 68.04019367     6    192    0    0    0
H 834.65465813 -33.91867788 66.16181155     6    192    0    0    0
C 831.27961618 -31.98551509 66.19102252     2    192   196   197   198
H 830.23334995 -33.45337350 65.22145604     6    195    0    0    0
H 829.88618843 -31.26313034 67.40180331     6    195    0    0    0
C 831.81065326 -29.99734005 63.98277770     1    195   199   200   201
H 830.20869710 -29.84744650 62.63894872     6    198    0    0    0
H 833.39287480 -30.51295967 62.73306874     6    198    0    0    0
H 832.36233863 -28.07141019 64.59243198     6    198    0    0    0
H 850.22480498 -52.54895346 67.56631259     6     203    0    0    0
C 849.97693973 -50.79766169 68.51201205     1     202    204    205    206
H 850.87826448 -49.37930213 67.47104603     6     203    0    0    0
H 848.10404629 -50.16535379 68.51887875     6     203    0    0    0
C 851.07225730 -50.86719050 71.12664947     2     203    207    208    209
H 850.67275859 -49.17463200 72.12826430     6     206    0    0    0
H 850.12817761 -52.42625211 72.03322861     6     206    0    0    0
C 853.79791370 -51.43177112 71.37823332     2     206    210   211   212
H 854.10537536 -51.90524419 73.37615825     6     209    0    0    0
H 854.27381833 -53.09963949 70.23131362     6     209    0    0    0
C 855.76963270 -49.20712010 70.77789488     2     209   213   214   215
H 855.87226659 -48.93152992 68.76167186     6    212    0    0    0
H 855.04903339 -47.31778252 71.29073928     6    212    0    0    0
C 858.45874450 -49.45876745 72.15068531     2    212   216   217   218
H 858.29840785 -49.50606894 74.24973641     6    215    0    0    0
H 859.40844155 -51.19799164 71.52069137     6    215    0    0    0
C 860.25573511 -47.29907430 71.13032793     2    215   219   220   221
H 860.42878987 -47.07574203 69.05921893     6    218    0    0    0
H 859.28257963 -45.47586462 71.45961030     6    218    0    0    0
C 862.91429207 -47.58989247 72.34975073     2    218   222   223   224
H 862.57905111 -47.43691679 74.40987036     6    221    0    0    0
H 863.88283415 -49.34218319 71.72400205     6    221    0    0    0
C 864.56525352 -45.42177215 71.73136171     2    221   225   226   227
H 864.59196203 -45.32976609 69.72374915     6    224    0    0    0
H 863.79406044 -43.57058218 72.47489086     6    224    0    0    0
C 867.16025164 -45.52354271 73.05177646     2    224   228   229   230
H 867.09743162 -45.63531428 75.07648894     6    227    0    0    0
H 868.17406015 -47.22980199 72.32396263     6    227    0    0    0
C 869.02068002 -43.41400328 72.44320050     2    227   231   232   233
H 869.24443913 -43.26425695 70.38120257     6    230    0    0    0
H 868.36115503 -41.45823314 72.99326524     6    230    0    0    0
C 871.67913585 -43.76684014 73.58985438     2    230   234   235   236
H 871.45086832 -44.01583343 75.60816770     6    233    0    0    0
H 872.61915745 -45.54740460 72.83248754     6    233    0    0    0
C 873.75934823 -41.79204171 73.04482093     1    233   237   238   239
H 875.36458763 -42.08264630 74.28298766     6    236    0    0    0
H 873.07537475 -39.88397115 73.48507751     6    236    0    0    0
H 874.42591355 -41.77113701 71.10193186     6    236    0    0    0
H 853.54451332 -79.41254847 70.55740411     6     241    0    0    0
C 851.68942651 -78.92468862 71.38320558     1     240    242    243    244
H 852.08052304 -77.19982923 72.39972734     6     241    0    0    0
H 850.40860277 -78.34817528 69.94922629     6     241    0    0    0
C 850.73495179 -80.90280990 73.14315640     2     241    245    246    247
H 852.07145792 -81.30495115 74.56932481     6     244    0    0    0
H 848.85744559 -80.32578596 73.85742990     6     244    0    0    0
C 850.41588317 -83.65120220 72.07340829     2     244    248   249   250
H 849.55092238 -85.04874342 73.35203666     6     247    0    0    0
H 848.98862003 -83.43985017 70.58723055     6     247    0    0    0
C 852.65288335 -84.88364491 70.65929287     2     247   251   252   253
H 851.94383096 -86.53702105 69.64673362     6    250    0    0    0
H 853.34637162 -83.48722307 69.20788838     6    250    0    0    0
C 854.96233124 -85.51916491 72.39682756     2    250   254   255   256
H 855.73034280 -83.71325782 73.05524896     6    253    0    0    0
H 854.05187185 -86.24903487 74.08992820     6    253    0    0    0
C 856.98720916 -87.21245744 71.33415172     2    253   257   258   259
H 858.34724531 -87.33213201 72.87014835     6    256    0    0    0
H 856.36279012 -89.12311767 71.07631092     6    256    0    0    0
C 858.20938601 -86.52830606 68.83676277     2    256   260   261   262
H 856.74612221 -86.21513842 67.39344353     6    259    0    0    0
H 858.95359964 -84.53792254 68.86180087     6    259    0    0    0
C 860.15535757 -88.52469433 67.85938980     2    259   263   264   265
H 861.53764353 -88.96242611 69.25086718     6    262    0    0    0
H 859.09030677 -90.13156337 67.40217122     6    262    0    0    0
C 861.56529063 -87.79000680 65.41810720     2    262   266   267   268
H 860.37810079 -88.13468079 63.73904571     6    265    0    0    0
H 861.95859147 -85.72999213 65.53158898     6    265    0    0    0
C 864.10154921 -89.22293031 65.08509766     2    265   269   270   271
H 865.23321651 -89.18350685 66.74759853     6    268    0    0    0
H 863.97205735 -91.23852833 64.76637739     6    268    0    0    0
C 865.63106037 -88.24640344 62.86726119     2    268   272   273   274
H 864.23042275 -87.81724277 61.47430380     6    271    0    0    0
H 866.30987333 -86.37895569 63.17527818     6    271    0    0    0
C 867.85828240 -89.80795853 61.71585586     1    271   275   276   277
H 869.53927920 -90.25878753 62.89265420     6    274    0    0    0
H 868.61586447 -88.75135520 60.06982030     6    274    0    0    0
H 867.02545855 -91.41017769 60.76923356     6    274    0    0    0
H 849.50273484 -55.22469700 81.72165408     6     279    0    0    0
C 848.66414998 -55.57902873 79.82377331     1     278    280    281    282
H 848.05994283 -57.53881765 79.53629350     6     279    0    0    0
H 847.13517218 -54.35021002 79.47935860     6     279    0    0    0
C 850.75651616 -55.21256334 78.05924770     2     279    283    284    285
H 849.99380613 -54.86141035 76.18872867     6     282    0    0    0
H 851.74799028 -53.46502884 78.29011168     6     282    0    0    0
C 852.76813930 -57.43235313 78.07793959     2     282    286   287   288
H 853.54171565 -57.69341027 79.99604471     6     285    0    0    0
H 851.73596160 -59.18403878 77.48544728     6     285    0    0    0
C 855.13037382 -56.85942807 76.42446174     2     285   289   290   291
H 854.48030231 -56.93493322 74.48373668     6    288    0    0    0
H 855.87859320 -54.91746278 76.60978278     6    288    0    0    0
C 857.02591369 -58.96556734 77.00544859     2    288   292   293   294
H 857.69781610 -58.90504651 78.87215532     6    291    0    0    0
H 856.21468474 -60.91227247 76.59256250     6    291    0    0    0
C 859.34664494 -58.87735630 75.49326681     2    291   295   296   297
H 858.80365175 -59.31248140 73.61028564     6    294    0    0    0
H 859.89803586 -56.99871421 75.36266405     6    294    0    0    0
C 861.61796981 -60.60943734 76.17116374     2    294   298   299   300

   18   -1830.4675003002      7.22E-09 Convergence criterion met
 Total energy in the final basis set = -1828.18208835
 Total job time:  15.98s(wall), 28.76s(cpu)
        *  Thank you very much for using Q-Chem.  Have a nice day.  *

User input: 2 of 2

                  Welcome to Q-Chem
     A Quantum Leap Into The Future Of Chemistry

 Q-Chem 5.4 (devel), Q-Chem, Inc., Pleasanton, CA (2021)

 E. Epifanovsky,  A. T. B. Gilbert,  Xintian Feng,  Joonho Lee,  Yuezhi Mao,
 N. Mardirossian,  P. Pokhilko,  A. White,  M. Wormit,  M. P. Coons,
 A. L. Dempwolff,  Zhengting Gan,  D. Hait,  P. R. Horn,  L. D. Jacobson,
 I. Kaliman,  J. Kussmann,  A. W. Lange,  Ka Un Lao,  D. S. Levine,  Jie Liu,
 S. C. McKenzie,  A. F. Morrison,  K. Nanda,  F. Plasser,  D. R. Rehn,
 M. L. Vidal,  Zhi-Qiang You,  Ying Zhu,  B. Alam,  B. Albrecht,
 A. Aldossary,  E. Alguire,  J. H. Andersen,  D. Barton,  K. Begam,  A. Behn,
 Y. A. Bernard,  E. J. Berquist,  H. Burton,  A. Carreras,  K. Carter-Fenk,
 R. Chakraborty,  A. D. Chien,  K. D. Closser,  V. Cofer-Shabica,
 S. Dasgupta,  Jia Deng,  M. de Wergifosse,  M. Diedenhofen,  Hainam Do,
 S. Ehlert,  Po-Tung Fang,  S. Fatehi,  Qingguo Feng,  T. Friedhoff,
 J. Gayvert,  Qinghui Ge,  G. Gidofalvi,  M. Goldey,  J. Gomes,
 C. Gonzalez-Espinoza,  S. Gulania,  A. Gunina,  M. W. D. Hanson-Heine,
 P. H. P. Harbach,  A. W. Hauser,  M. F. Herbst,  M. Hernandez Vera,
 M. Hodecker,  Z. C. Holden,  S. Houck,  Xunkun Huang,  Kerwin Hui,
 B. C. Huynh,  M. Ivanov,  Hyunjun Ji,  Hanjie Jiang,  B. Kaduk,  S. Kaehler,
 K. Khistyaev,  Jaehoon Kim,  P. Klunzinger,  Z. Koczor-Benda,
 Joong Hoon Koh,  D. Kosenkov,  L. Koulias,  T. Kowalczyk,  C. M. Krauter,
 K. Kue,  A. Kunitsa,  T. Kus,  A. Landau,  K. V. Lawler,  D. Lefrancois,
 S. Lehtola,  Rain Li,  Yi-Pei Li,  Jiashu Liang,  M. Liebenthal,
 Hung-Hsuan Lin,  You-Sheng Lin,  Fenglai Liu,  Kuan-Yu Liu,
 M. Loipersberger,  A. Luenser,  A. Manjanath,  P. Manohar,  E. Mansoor,
 S. F. Manzer,  Shan-Ping Mao,  A. V. Marenich,  T. Markovich,  S. Mason,
 S. A. Maurer,  P. F. McLaughlin,  M. F. S. J. Menger,  J.-M. Mewes,
 S. A. Mewes,  P. Morgante,  J. W. Mullinax,  K. J. Oosterbaan,  G. Paran,
 Alexander C. Paul,  Suranjan K. Paul,  F. Pavosevic,  Zheng Pei,  S. Prager,
 E. I. Proynov,  E. Ramos,  B. Rana,  A. E. Rask,  A. Rettig,  R. M. Richard,
 F. Rob,  E. Rossomme,  T. Scheele,  M. Scheurer,  M. Schneider,
 N. Sergueev,  S. M. Sharada,  W. Skomorowski,  D. W. Small,  C. J. Stein,
 Yu-Chuan Su,  E. J. Sundstrom,  Zhen Tao,  J. Thirman,  T. Tsuchimochi,
 N. M. Tubman,  S. P. Veccham,  O. Vydrov,  J. Wenzel,  J. Witte,  A. Yamada,
 Kun Yao,  S. Yeganeh,  S. R. Yost,  A. Zech,  Igor Ying Zhang,  Xing Zhang,
 Yu Zhang,  D. Zuev,  A. Aspuru-Guzik,  A. T. Bell,  N. A. Besley,
 K. B. Bravaya,  B. R. Brooks,  D. Casanova,  Jeng-Da Chai,  S. Coriani,
 C. J. Cramer,  A. E. DePrince, III,  R. A. DiStasio Jr.,  A. Dreuw,
 B. D. Dunietz,  T. R. Furlani,  W. A. Goddard III,  S. Grimme,
 S. Hammes-Schiffer,  T. Head-Gordon,  W. J. Hehre,  Chao-Ping Hsu,
 T.-C. Jagau,  Yousung Jung,  A. Klamt,  Jing Kong,  D. S. Lambrecht,
 WanZhen Liang,  N. J. Mayhall,  C. W. McCurdy,  J. B. Neaton,
 C. Ochsenfeld,  J. A. Parkhill,  R. Peverati,  V. A. Rassolov,  Yihan Shao,
 L. V. Slipchenko,  T. Stauch,  R. P. Steele,  J. E. Subotnik,
 A. J. W. Thom,  A. Tkatchenko,  D. G. Truhlar,  T. Van Voorhis,
 T. A. Wesolowski,  K. B. Whaley,  H. L. Woodcock III,  P. M. Zimmerman,
 S. Faraji,  P. M. W. Gill,  M. Head-Gordon,  J. M. Herbert,  A. I. Krylov

 Additional authors for Version 5.4.1:
 S. Kotaru,  Shaozhi Li,  Xiangyuan Li,  F. Matz,  A. Molle,  Haisheng Ren,
 Yingli Su,  Hung-Yi Tsai,  C. Utku,  Fang Wang

 Contributors to earlier versions of Q-Chem not listed above:
 R. D. Adamson,  B. Austin,  R. Baer,  J. Baker,  G. J. O. Beran,
 K. Brandhorst,  S. T. Brown,  E. F. C. Byrd,  A. K. Chakraborty,
 G. K. L. Chan,  Chun-Min Chang,  Yunqing Chen,  C.-L. Cheng,
 Siu Hung Chien,  D. M. Chipman,  D. L. Crittenden,  H. Dachsel,
 R. J. Doerksen,  A. D. Dutoi,  R. G. Edgar,  J. Fosso-Tande,
 L. Fusti-Molnar,  D. Ghosh,  A. Ghysels,  A. Golubeva-Zadorozhnaya,
 J. Gonthier,  M. S. Gordon,  S. R. Gwaltney,  G. Hawkins,  J. E. Herr,
 A. Heyden,  S. Hirata,  E. G. Hohenstein,  G. Kedziora,  F. J. Keil,
 C. Kelley,  Jihan Kim,  R. A. King,  R. Z. Khaliullin,  P. P. Korambath,
 W. Kurlancheek,  A. Laurent,  A. M. Lee,  M. S. Lee,  S. V. Levchenko,
 Ching Yeh Lin,  D. Liotard,  E. Livshits,  R. C. Lochan,  I. Lotan,
 L. A. Martinez-Martinez,  P. E. Maslen,  N. Nair,  D. P. O'Neill,
 D. Neuhauser,  E. Neuscamman,  C. M. Oana,  R. Olivares-Amaya,  R. Olson,
 T. M. Perrine,  B. Peters,  P. A. Pieniazek,  A. Prociuk,  Y. M. Rhee,
 J. Ritchie,  M. A. Rohrdanz,  E. Rosta,  N. J. Russ,  H. F. Schaefer III,
 M. W. Schmidt,  N. E. Schultz,  S. Sharma,  N. Shenvi,  C. D. Sherrill,
 A. C. Simmonett,  A. Sodt,  T. Stein,  D. Stuck,  K. S. Thanthiriwatte,
 V. Vanovschi,  L. Vogt,  Tao Wang,  A. Warshel,  M. A. Watson,
 C. F. Williams,  Q. Wu,  X. Xu,  Jun Yang,  W. Zhang,  Yan Zhao

 Please cite Q-Chem as follows:
 Y. Shao et al., Mol. Phys. 113, 184-215 (2015)
 DOI: 10.1080/00268976.2014.952696

 Q-Chem 5.4.1 for Intel X86 EM64T Linux

 Parts of Q-Chem use Armadillo 9.900.5 (Nocturnal Misbehaviour).
 http://arma.sourceforge.net/

 Q-Chem begins on Wed Jun 22 08:05:41 2022

 Host: p09r16n04.grace.hpc.yale.internal
0

     Scratch files written to /home/tl686/scratch60/qchem_dev/scratch/qchem69662//
 Processing $rem in /home/tl686/qchem_dev/qchem/config/preferences:
 Processing $rem in /home/tl686/.qchemrc:
Applying user defined connections for MM calculations
The previous job contains 0 fragments, simply inherited here

 Checking the input file for inconsistencies... 	...done.

--------------------------------------------------------------
User input:
--------------------------------------------------------------

$molecule
READ
$end

$qm_atoms
1:11
$end

$force_field_params
NumAtomTypes 3
AtomType -1   0.0238     3.11   0.2868
AtomType -2   0.07124    3.30   0.6597
AtomType -3  -0.0760     3.09   0.1434
$end

$rem
     JOBTYPE  freq
     METHOD   bp86
     BASIS    def2-msvp
     MAX_SCF_CYCLES   800
     INPUT_BOHR TRUE
     SYM_IGNORE TRUE
     SCF_GUESS     read
     user_connect            true
     qm_mm_interface         ONIOM
     force_field             oplsaa
$end

--------------------------------------------------------------

    2   -1830.4675003001      8.34E-09 Convergence criterion met
 Total energy in the final basis set = -1828.18208835

                    Orbital Energies (a.u.)
 --------------------------------------------------------------

 Alpha MOs
 -- Occupied --
******** -29.6475 -25.6072 -25.5939 -25.5920 -18.9043 -18.8947 -18.8923
-18.8828 -18.8483 -10.0713 -10.0628 -10.0591 -10.0527 -10.0503  -3.3309
 -2.1660  -2.1400  -2.1361  -1.0812  -1.0800  -1.0751  -1.0180  -0.9267
 -0.5820  -0.5367  -0.5289  -0.5243  -0.5172  -0.4659  -0.4553  -0.4505
 -0.4456  -0.4428  -0.4377  -0.4348  -0.4245  -0.4159  -0.4064  -0.3987
 -0.3886  -0.3822  -0.3418  -0.3405  -0.2823  -0.2789  -0.2366  -0.2357

          Ground-State Mulliken Net Atomic Charges

     Atom                 Charge (a.u.)
  ----------------------------------------
      1 Fe                   -0.442774
      2 C                     0.226613
      3 C                     0.195999
      4 C                     0.238131
      5 C                     0.243479
      6 C                     0.214542
      7 O                    -0.082802
      8 O                    -0.084783
      9 O                    -0.263450
     10 O                    -0.160843
     11 O                    -0.084112
  ----------------------------------------
  Sum of atomic charges =     0.000000

                    Cartesian Multipole Moments
 -----------------------------------------------------------------
    Charge (ESU x 10^10)
                -0.0000
    Dipole Moment (Debye)
         X       1.5747804141      Y      -0.6652773008      Z      -0.6566123795
       Tot       1.8313020112
    Quadrupole Moments (Debye-Ang)
        XX    1328.4438     XY    -348.2313     YY     -22.7970
        XZ    -250.4782     YZ       3.3128     ZZ    -104.6665

 Frequency:       -90.59                 -70.75                 -55.21
 Force Cnst:      0.0790                 0.0517                 0.0278
 Red. Mass:      16.3406                17.5206                15.4790
 IR Intens:        0.000                  0.000                  0.000
 Frequency:       -36.07                 118.02                 153.17
 Force Cnst:      0.0124                 0.1259                 0.2157
 Red. Mass:      16.1771                15.3471                15.6041
 IR Intens:        0.000                  0.000                  0.000
 Frequency:       166.43                 324.51                 336.72
 Force Cnst:      0.2623                 0.7979                 0.8445
 Red. Mass:      16.0710                12.8603                12.6427
 IR Intens:        0.000                  0.000                  0.000
 Frequency:       377.99                 401.49                 410.02
 Force Cnst:      1.2055                 1.3323                 1.3815
 Red. Mass:      14.3204                14.0279                13.9470
 IR Intens:        0.000                  0.000                  0.000
 Frequency:       420.49                 438.57                 499.30
 Force Cnst:      1.4589                 1.6398                 1.8812
 Red. Mass:      14.0040                14.4699                12.8076
 IR Intens:        0.000                  0.000                  0.000
 Frequency:       532.20                 552.32                 569.49
 Force Cnst:      2.5331                 3.1388                 3.0617
 Red. Mass:      15.1795                17.4635                16.0229
 IR Intens:        0.000                  0.000                  0.000
 Frequency:       620.20                 644.68                 703.81
 Force Cnst:      3.0227                 3.8513                 3.9771
 Red. Mass:      13.3375                15.7277                13.6273
 IR Intens:        0.000                  0.000                  0.000
 Frequency:       710.35                 977.48                1573.48
 Force Cnst:      4.0781                 7.2652                19.4246
 Red. Mass:      13.7170                12.9057                13.3162
 IR Intens:        0.000                  0.000                  0.000
 Frequency:      2093.27                2172.61                2220.99
 Force Cnst:     34.5221                37.1712                38.6895
 Red. Mass:      13.3720                13.3657                13.3122
 IR Intens:        0.000                  0.000                  0.000

 STANDARD THERMODYNAMIC QUANTITIES AT   298.15 K  AND     1.00 ATM

   This Molecule has  4 Imaginary Frequencies
   Zero point vibrational energy:       24.328 kcal/mol

   Atom    1 Element Fe Has Mass   55.93490
   Atom    2 Element C  Has Mass   12.00000
   Atom    3 Element C  Has Mass   12.00000
   Atom    4 Element C  Has Mass   12.00000
   Atom    5 Element C  Has Mass   12.00000
   Atom    6 Element C  Has Mass   12.00000
   Atom    7 Element O  Has Mass   15.99491
   Atom    8 Element O  Has Mass   15.99491
   Atom    9 Element O  Has Mass   15.99491
   Atom   10 Element O  Has Mass   15.99491
   Atom   11 Element O  Has Mass   15.99491
   Molecular Mass:   195.909450 amu
   Principal axes and moments of inertia in amu*Bohr^2:
                             1           2           3
    Eigenvalues --     2003.88018  2275.63556  2351.21893
          X               0.12073    -0.69640     0.70742
          Y               0.99248     0.09915    -0.07178
          Z              -0.02016     0.71077     0.70314
   Rotational Symmetry Number is   1
   The Molecule is an Asymmetric Top
   Translational Enthalpy:        0.889 kcal/mol
   Rotational Enthalpy:           0.889 kcal/mol
   Vibrational Enthalpy:         27.820 kcal/mol
   gas constant (RT):             0.592 kcal/mol
   Translational Entropy:        41.722  cal/mol.K
   Rotational Entropy:           30.750  cal/mol.K
   Vibrational Entropy:          19.198  cal/mol.K

   Total Enthalpy:               30.190 kcal/mol
   Total Entropy:                91.671  cal/mol.K

 Total job time:  119.70s(wall), 236.04s(cpu)
        *  Thank you very much for using Q-Chem.  Have a nice day.  *
