 Q-Chem 5.4 (devel), Q-Chem, Inc., Pleasanton, CA (2021)
 Q-Chem 5.4.1 for Intel X86 EM64T Linux

User input:
--------------------------------------------------------------
$molecule
0   1
 Fe 74.50762445 34.29171322 -43.55198601    -1  0   0   0   0
C 72.66782174 33.79099499 -40.61557947    -2  0   0   0   0
C 74.50566336 37.73845518 -44.11301377    -2  0   0   0   0
C 77.41863900 34.94307169 -41.79227471    -2  0   0   0   0
C 76.21927154 32.18055575 -45.66149798    -2  0   0   0   0
C 71.72445050 33.76899488 -45.34636260    -2  0   0   0   0
O 71.75245934 33.62604953 -38.64735134    -3  0   0   0   0
O 74.66882924 39.89484772 -44.63512013    -3  0   0   0   0
O 79.03224396 35.72920444 -40.56764151    -3  0   0   0   0
O 77.52818087 31.06231065 -47.17846249    -3  0   0   0   0
O 69.94912630 33.67417843 -46.78178631    -3  0   0   0   0
H 78.53900800 19.22999895 -20.53348031      6     13    0    0    0
C 77.46111657 20.91159689 -21.00154370     1     12    14    15    16
H 76.88536477 21.98810467 -19.22589611     6     13    0    0    0
H 78.75850444 22.11060710 -22.05016915     6     13    0    0    0
C 75.13687735 20.35031957 -22.76965980     2     13    17    18    19
H 73.80323357 19.10081666 -21.85537884     6     16    0    0    0
H 74.32856668 22.25754503 -22.81567095     6     16    0    0    0
C 75.99723503 19.73592969 -25.42662995     2     16    20   21   22
H 76.29955288 21.61079804 -26.39926593     6     19    0    0    0
H 77.88446480 18.93658462 -25.44384287     6     19    0    0    0
C 74.04683648 18.21232707 -27.04973749     2     19   23   24   25
H 73.19965386 16.51403498 -26.10881578     6    22    0    0    0
H 72.29837203 19.32224782 -27.67636118     6    22    0    0    0
C 75.39980754 17.60122989 -29.45592847     2    22   26   27   28
H 76.32955001 19.30489513 -30.38279344     6    25    0    0    0
H 77.11408149 16.63340687 -28.88963370     6    25    0    0    0
C 74.10554449 15.81998040 -31.45882477     2    25   29   30   31
H 73.35717379 14.19920584 -30.31220607     6    28    0    0    0
H 72.51508870 16.68441244 -32.47719582     6    28    0    0    0
C 75.75012419 14.51246074 -33.50719224     2    28   32   33   34
H 76.15213602 15.98778268 -35.03034179     6    31    0    0    0
H 77.58885212 13.83185953 -32.98355005     6    31    0    0    0
C 74.11407482 12.32808209 -34.70719949     2    31   35   36   37
H 73.71671433 10.90696644 -33.25457643     6    34    0    0    0
H 72.37018928 12.89989724 -35.39134923     6    34    0    0    0
C 75.50092689 11.09439880 -36.87564375     2    34   38   39   40
H 76.50399544 12.53283106 -38.11755637     6    37    0    0    0
H 77.23334418 10.16980903 -36.09636600     6    37    0    0    0
C 74.12096742 9.28405747 -38.28906460     2    37   41   42   43
H 73.27673653 7.80101472 -37.12086700     6    40    0    0    0
H 72.61556328 10.53481796 -39.10786918     6    40    0    0    0
C 75.49276735 7.86968253 -40.54172368     2    40   44   45   46
H 76.62545450 9.12337969 -41.61701390     6    43    0    0    0
H 76.76162845 6.52424070 -39.64225922     6    43    0    0    0
C 73.62394503 6.34058870 -42.09415798     1    43   47   48   49
H 72.07962355 5.71832871 -40.74417061     6    46    0    0    0
H 74.38671386 4.59949082 -42.93008881     6    46    0    0    0
H 72.33047739 7.42108308 -43.41207364     6    46    0    0    0
H 69.58877396 25.55810256 -42.44828562     6     51    0    0    0
C 70.85360071 27.06745113 -41.83667494     1     50    52    53    54
H 72.45573967 26.97932403 -43.10592977     6     51    0    0    0
H 69.74250705 28.85751821 -42.02407000     6     51    0    0    0
C 71.85860793 26.84654166 -39.13271182     2     51    55    56    57
H 72.53999439 28.60231486 -38.35760774     6     54    0    0    0
H 70.23649520 26.43008121 -37.96612854     6     54    0    0    0
C 73.85946979 24.73759893 -39.05743767     2     54    58   59   60
H 75.52520750 25.08004195 -40.35168900     6     57    0    0    0
H 74.70246077 24.72156864 -37.18047424     6     57    0    0    0
C 72.82475577 22.02154729 -39.80580651     2     57   61   62   63
H 71.29586760 21.44971522 -38.56064721     6    60    0    0    0
H 72.04848753 22.12234121 -41.63796090     6    60    0    0    0
C 75.01644895 20.03245322 -39.71292809     2    60   64   65   66
H 76.46697796 20.59037712 -40.96956361     6    63    0    0    0
H 75.77834248 19.89344081 -37.82034788     6    63    0    0    0
C 74.10004877 17.39642404 -40.55559300     2    63   67   68   69
H 75.72268196 16.22053012 -40.27335023     6    66    0    0    0
H 72.76660860 16.55747126 -39.20090603     6    66    0    0    0
C 73.00566928 17.11114639 -43.23878573     2    66   70   71   72
H 71.40713863 18.22310406 -43.97388594     6    69    0    0    0
H 74.56103877 17.59167142 -44.52101141     6    69    0    0    0
C 72.50933609 14.27261259 -43.66989804     2    69   73   74   75
H 74.02082188 13.08790819 -42.83182887     6    72    0    0    0
H 70.62260724 13.78773321 -42.73132290     6    72    0    0    0
C 72.43951438 13.68436213 -46.47456224     2    72   76   77   78
H 71.55243703 15.26042532 -47.52029110     6    75    0    0    0
H 74.33873661 13.62293853 -47.31357131     6    75    0    0    0
C 71.05954839 11.25200236 -47.34024479     2    75   79   80   81
H 72.11065685 9.51692501 -47.01094436     6    78    0    0    0
H 69.44925733 11.11694767 -46.10252154     6    78    0    0    0
C 70.06209844 11.61421815 -50.04821648     2    78   82   83   84
H 68.99697284 13.43194559 -50.29662306     6    81    0    0    0
H 71.64153902 11.74810646 -51.44937347     6    81    0    0    0
C 68.52274511 9.17375816 -50.81751549     1    81   85   86   87
H 67.34274903 9.84826844 -52.46759610     6    84    0    0    0
H 67.19138048 8.58591466 -49.30491900     6    84    0    0    0
H 69.78017847 7.57359035 -51.09977421     6    84    0    0    0
H 97.58861994 14.04056914 -29.92085284     6     89    0    0    0
C 97.46995702 12.07192688 -30.35924030     1     88    90    91    92
H 98.65412003 11.56385687 -31.94604919     6     89    0    0    0
H 98.42079774 10.89715466 -28.85352305     6     89    0    0    0
C 94.69464004 11.12692937 -30.83084049     2     89    93    94    95
H 93.68416569 12.21752401 -29.44758747     6     92    0    0    0
H 94.06186719 11.66606740 -32.73997001     6     92    0    0    0
C 94.05898930 8.27041297 -30.61973170     2     92    96   97   98
H 95.31562503 7.02004779 -31.50738079     6     95    0    0    0
H 94.52502741 7.72257116 -28.65223923     6     95    0    0    0
C 91.40699217 7.42556303 -31.38914198     2     95   99   100   101
H 89.82377894 8.57725027 -30.46252483     6    98    0    0    0
H 91.14685563 7.72894036 -33.48284143     6    98    0    0    0
C 90.75534688 4.71860498 -30.77722456     2    98   102   103   104
H 92.17776691 3.53435546 -31.56839745     6    101    0    0    0
H 90.83589036 4.38810877 -28.78404709     6    101    0    0    0
C 88.47922184 3.66306469 -32.04506711     2    101   105   106   107
H 86.81361188 4.71570824 -31.23232322     6    104    0    0    0
H 88.42508172 4.34620419 -33.96554291     6    104    0    0    0
C 88.10938564 0.85471887 -31.79851444     2    104   108   109   110
H 89.71172423 0.08979296 -32.63774526     6    107    0    0    0
H 88.32417458 0.30268622 -29.81293650     6    107    0    0    0
C 85.73083029 -0.38668017 -32.95889353     2    107   111   112   113
H 84.12914863 0.86439958 -32.56268846     6    110    0    0    0
H 85.83956702 -0.41040191 -35.10426665     6    110    0    0    0
C 85.29403056 -3.15902790 -32.00832891     2    110   114   115   116
H 86.93131369 -4.18176309 -31.30099287     6    113    0    0    0
H 84.15618652 -3.17210016 -30.28911605     6    113    0    0    0
C 83.79627496 -4.74912695 -34.16931492     2    113   117   118   119
H 81.97315844 -3.97113598 -34.80000148     6    116    0    0    0
H 84.88363691 -4.78223394 -36.01081119     6    116    0    0    0
C 83.46377487 -7.53378211 -33.48340929     2    116   120   121   122
H 85.24445922 -8.35525549 -33.25105100     6    119    0    0    0
H 82.50859848 -7.69970823 -31.71386444     6    119    0    0    0
C 81.90267804 -8.92700233 -35.42599256     1    119   123   124   125
H 81.28828387 -10.77476110 -34.68804444     6    122    0    0    0
H 82.86247866 -9.18372393 -37.32472398     6    122    0    0    0
H 80.08145296 -7.96960350 -35.79072249     6    122    0    0    0
H 103.39828114 24.26634495 -30.25019850     6     127    0    0    0
C 103.05444323 24.27813009 -32.21485706     1     126    128    129    130
H 104.59687670 23.41672375 -33.19904739     6     127    0    0    0
H 101.36878627 23.14656653 -32.65698190     6     127    0    0    0
C 102.88752126 26.92138354 -33.28101793     2     127    131    132    133
H 101.31967369 27.87025046 -32.37540451     6     130    0    0    0
H 104.39713289 28.21763076 -32.59714555     6     130    0    0    0
C 102.56252096 27.07453319 -36.10621859     2     130    134   135   136
H 104.29246874 27.07977762 -37.21636037     6     133    0    0    0
H 101.29370817 25.48494026 -36.72825907     6     133    0    0    0
C 100.88755052 29.30382220 -36.78594976     2     133   137   138   139
H 99.18273207 29.44273670 -35.65018977     6    136    0    0    0
H 101.80017626 31.05694399 -36.39384483     6    136    0    0    0
C 100.02333732 29.23787291 -39.55636085     2    136   140   141   142
H 101.62750848 29.62798029 -40.76575019     6    139    0    0    0
H 98.99414706 27.57696052 -39.98418497     6    139    0    0    0
C 98.09701035 31.53967716 -40.04026023     2    139   143   144   145
H 96.82068789 31.41503896 -38.40616459     6    142    0    0    0
H 99.13272081 33.37574787 -39.83870193     6    142    0    0    0
C 96.72238944 31.15180069 -42.65995395     2    142   146   147   148
H 98.22397588 31.59283959 -44.00903023     6    145    0    0    0
H 96.12741608 29.09363212 -42.90966510     6    145    0    0    0
C 94.60148091 33.08571443 -43.11215153     2    145   149   150   151
H 93.21542651 32.82800010 -41.72147675     6    148    0    0    0
H 95.08039615 35.04030345 -42.79185965     6    148    0    0    0
C 93.06329467 32.75448845 -45.55295351     2    148   152   153   154
H 94.21276594 33.18866614 -47.18267618     6    151    0    0    0
H 92.81030565 30.68369081 -45.81427779     6    151    0    0    0
C 90.70656592 34.37598971 -45.73696632     2    151   155   156   157
H 89.39668146 33.53828828 -47.08403003     6    154    0    0    0
H 89.69699801 34.45853697 -43.91569146     6    154    0    0    0
C 91.18071238 37.15391378 -46.59884487     2    154   158   159   160
H 92.21126490 38.11318657 -45.05427897     6    157    0    0    0
H 92.52549787 37.56822076 -48.16742178     6    157    0    0    0
C 88.69076357 38.56282543 -46.96557659     1    157   161   162   163
H 89.03576069 40.53906117 -47.32471697     6    160    0    0    0
H 87.45533384 38.23420473 -45.27447034     6    160    0    0    0
H 87.44150421 37.75605676 -48.38012694     6    160    0    0    0
H 100.92880489 2.30059566 -45.73836387     6     165    0    0    0
C 99.88220239 4.12348858 -46.09809190     1     164    166    167    168
H 98.80335206 3.76114342 -47.80875569     6     165    0    0    0
H 98.82539213 4.49216669 -44.36804184     6     165    0    0    0
C 101.76509952 6.39761033 -46.44010824     2     165    169    170    171
H 103.12949129 6.52582944 -44.92812512     6     168    0    0    0
H 102.93748813 5.98862887 -48.18238765     6     168    0    0    0
C 100.59510814 8.98165594 -46.96576696     2     168    172   173   174
H 99.23788583 8.85585395 -48.48836167     6     171    0    0    0
H 99.31913466 9.44924548 -45.39707376     6     171    0    0    0
C 102.45743242 11.05113837 -47.44298010     2     171   175   176   177
H 104.35403756 10.42229464 -46.84786079     6    174    0    0    0
H 102.77838451 11.30160621 -49.48663511     6    174    0    0    0
C 101.74061609 13.64225759 -46.07877491     2    174   178   179   180
H 99.95679678 14.18223329 -46.72318443     6    177    0    0    0
H 101.73907627 13.63436600 -44.01941365     6    177    0    0    0
C 103.27711882 15.80923067 -47.10795458     2    177   181   182   183
H 105.21911306 15.14356261 -47.15018079     6    180    0    0    0
H 102.76261663 15.96106137 -49.13717038     6    180    0    0    0
C 102.83102568 18.52764212 -46.22936459     2    180   184   185   186
H 100.91096307 19.14734013 -46.59031861     6    183    0    0    0
H 102.84038912 18.74079611 -44.22423561     6    183    0    0    0
C 104.70300809 20.27227359 -47.50483791     2    183   187   188   189
H 106.73981799 19.71390733 -47.09725272     6    186    0    0    0
H 104.41391412 20.20891326 -49.55353615     6    186    0    0    0
C 104.48506894 23.06357641 -46.40282240     2    186   190   191   192
H 102.49270196 23.54408355 -46.27205040     6    189    0    0    0
H 105.09297562 23.38437941 -44.54323146     6    189    0    0    0
C 105.94606754 24.98260901 -48.14363418     2    189   193   194   195
H 107.88771027 24.41940532 -48.31598118     6    192    0    0    0
H 104.90914235 25.06472840 -49.91939299     6    192    0    0    0
C 106.15941413 27.73933245 -46.95780345     2    192   196   197   198
H 104.25748686 28.47066365 -46.33667689     6    195    0    0    0
H 107.22407298 27.34491695 -45.20575823     6    195    0    0    0
C 107.35142311 29.56300088 -48.79590087     1    195   199   200   201
H 107.81669624 31.34135711 -47.82418590     6    198    0    0    0
H 105.98721039 30.14291465 -50.28795259     6    198    0    0    0
H 109.12830671 28.93374918 -49.64695585     6    198    0    0    0
H 92.89513152 11.90594198 -56.90379854     6     203    0    0    0
C 94.02876098 13.35416024 -57.91994294     1     202    204    205    206
H 92.82154407 15.04241297 -58.25857054     6     203    0    0    0
H 95.60414482 13.99007857 -56.69307885     6     203    0    0    0
C 95.06780518 12.03038138 -60.37857521     2     203    207    208    209
H 96.71376202 12.86594228 -61.03077573     6     206    0    0    0
H 95.55235663 10.15727117 -59.87511908     6     206    0    0    0
C 93.08170510 12.11441397 -62.47612281     2     206    210   211   212
H 93.43818542 10.56904296 -63.72423480     6     209    0    0    0
H 91.20060756 11.68813554 -61.59295776     6     209    0    0    0
C 92.92440993 14.73272188 -63.69770707     2     209   213   214   215
H 92.14351295 16.06798334 -62.35028913     6    212    0    0    0
H 94.80475698 15.44248756 -64.21854618     6    212    0    0    0
C 91.25181137 14.93618133 -66.00940318     2    212   216   217   218
H 91.95902815 13.79586776 -67.64407283     6    215    0    0    0
H 89.48676820 14.07248707 -65.71471931     6    215    0    0    0
C 90.69461550 17.62486584 -66.97631394     2    215   219   220   221
H 90.27061807 18.97382974 -65.49653968     6    218    0    0    0
H 92.28473727 18.56277054 -68.00196148     6    218    0    0    0
C 88.60645188 17.55037349 -68.94988593     2    218   222   223   224
H 89.13447356 16.39070409 -70.53929255     6    221    0    0    0
H 86.73089316 16.80358841 -68.37045081     6    221    0    0    0
C 88.22724136 19.98799216 -70.37753571     2    221   225   226   227
H 87.45044738 21.11894429 -68.92747717     6    224    0    0    0
H 89.92824253 21.01614588 -70.90655774     6    224    0    0    0
C 86.27334848 19.89433813 -72.58500299     2    224   228   229   230
H 86.51555018 18.29311158 -73.93139634     6    227    0    0    0
H 84.47998685 19.38060788 -71.74622204     6    227    0    0    0
C 86.15146862 22.37165841 -73.98868883     2    227   231   232   233
H 86.26884796 24.03206330 -72.79864217     6    230    0    0    0
H 87.82818237 22.48433270 -75.18903426     6    230    0    0    0
C 83.78815571 22.51952248 -75.66316612     2    230   234   235   236
H 84.24402138 21.20220567 -77.20667089     6    233    0    0    0
H 82.01567250 22.01332491 -74.77352813     6    233    0    0    0
C 83.49109084 24.98294172 -77.18547183     1    233   237   238   239
H 82.16871936 24.73918630 -78.71490065     6    236    0    0    0
H 85.38685667 25.49186640 -77.89042240     6    236    0    0    0
H 82.74717909 26.61834153 -76.19722767     6    236    0    0    0
H 66.47808167 -2.22223369 -50.60186557     6     241    0    0    0
C 67.67572003 -1.17094043 -52.02957511     1     240    242    243    244
H 68.50602795 -2.42635884 -53.46016970     6     241    0    0    0
H 66.32740821 0.04690466 -53.18298695     6     241    0    0    0
C 69.80293306 0.25986842 -50.58005359     2     241    245    246    247
H 71.18118245 -0.91312904 -49.76463030     6     244    0    0    0
H 70.76028320 1.55633962 -51.87288699     6     244    0    0    0
C 68.61803235 1.89848312 -48.59555802     2     244    248   249   250
H 69.79580099 3.54618212 -48.21110835     6     247    0    0    0
H 66.98792984 2.72162752 -49.41272694     6     247    0    0    0
C 67.87720694 0.56280587 -46.07741302     2     247   251   252   253
H 66.32445806 1.58937287 -45.19942186     6    250    0    0    0
H 66.68130510 -1.12601015 -46.31226507     6    250    0    0    0
C 69.93368755 -0.05127635 -44.16434703     2    250   254   255   256
H 71.00461557 -1.45543127 -45.03699910     6    253    0    0    0
H 71.38701319 1.61011316 -44.16886762     6    253    0    0    0
C 69.12830137 -0.99029153 -41.57478677     2    253   257   258   259
H 70.49850892 -2.11037872 -40.57390518     6    256    0    0    0
H 68.81809369 0.75124630 -40.54222745     6    256    0    0    0
C 66.64881409 -2.80226313 -41.45186764     2    256   260   261   262
H 64.96214639 -1.73380391 -42.14708728     6    259    0    0    0
H 66.78830391 -4.42173766 -42.71376286     6    259    0    0    0
C 65.96198881 -4.00208195 -38.79522309     2    259   263   264   265
H 67.09457821 -5.55921185 -38.40062583     6    262    0    0    0
H 66.28916578 -2.46725116 -37.61909609     6    262    0    0    0
C 63.19621164 -4.94365304 -38.58002598     2    262   266   267   268
H 62.90709190 -5.41759244 -36.52259873     6    265    0    0    0
H 61.70378193 -3.66859239 -38.70754852     6    265    0    0    0
C 62.51401368 -7.07318626 -40.40084179     2    265   269   270   271
H 62.90822859 -6.42426999 -42.37169678     6    268    0    0    0
H 63.74716383 -8.65413733 -40.07733138     6    268    0    0    0
C 59.62340875 -8.04460300 -40.46586777     2    268   272   273   274
H 59.16379066 -8.90968730 -38.70720883     6    271    0    0    0
H 58.29292366 -6.58772208 -40.83748375     6    271    0    0    0
C 58.95876937 -10.07325508 -42.40140392     1    271   275   276   277
H 58.83969453 -9.45754552 -44.29666955     6    274    0    0    0
H 57.03738198 -10.75413173 -41.82345755     6    274    0    0    0
H 59.87078530 -11.85431048 -42.52064712     6    274    0    0    0
H 88.32537828 0.41185450 -51.77775289     6     279    0    0    0
C 87.77301811 2.13869022 -52.71962525     1     278    280    281    282
H 87.67280607 3.90320549 -51.62762915     6     279    0    0    0
H 89.03903081 2.53068042 -54.18586117     6     279    0    0    0
C 85.35448983 1.44986089 -54.29235797     2     279    283    284    285
H 85.70763322 -0.24777098 -55.24979866     6     282    0    0    0
H 83.76696070 1.30109039 -53.03274426     6     282    0    0    0
C 84.46974461 3.49318782 -56.18429306     2     282    286   287   288
H 83.42015444 4.92040446 -54.94851693     6     285    0    0    0
H 86.07060216 4.32599823 -57.32423371     6     285    0    0    0
C 82.63398154 2.34795634 -57.99024868     2     285   289   290   291
H 83.48175519 0.92763288 -59.12465752     6    288    0    0    0
H 81.04905136 1.43891924 -57.15484289     6    288    0    0    0
C 81.73122598 4.53297279 -59.74202359     2    288   292   293   294
H 80.87400749 6.22838429 -58.91485518     6    291    0    0    0
H 83.39790901 5.15827684 -60.80803225     6    291    0    0    0
C 79.97358093 3.79446560 -61.93634889     2    291   295   296   297
H 81.25639349 2.77235568 -63.31669857     6    294    0    0    0
H 78.74170970 2.38013929 -61.27344557     6    294    0    0    0
C 78.77185520 6.06093322 -63.23196055     2    294   298   299   300

   18   -1830.5110448421      4.87E-09 Convergence criterion met
 Total energy in the final basis set = -1828.24392408
 Total job time:  17.37s(wall), 31.11s(cpu)
        *  Thank you very much for using Q-Chem.  Have a nice day.  *

User input: 2 of 2

                  Welcome to Q-Chem
     A Quantum Leap Into The Future Of Chemistry

 Q-Chem 5.4 (devel), Q-Chem, Inc., Pleasanton, CA (2021)

 E. Epifanovsky,  A. T. B. Gilbert,  Xintian Feng,  Joonho Lee,  Yuezhi Mao,
 N. Mardirossian,  P. Pokhilko,  A. White,  M. Wormit,  M. P. Coons,
 A. L. Dempwolff,  Zhengting Gan,  D. Hait,  P. R. Horn,  L. D. Jacobson,
 I. Kaliman,  J. Kussmann,  A. W. Lange,  Ka Un Lao,  D. S. Levine,  Jie Liu,
 S. C. McKenzie,  A. F. Morrison,  K. Nanda,  F. Plasser,  D. R. Rehn,
 M. L. Vidal,  Zhi-Qiang You,  Ying Zhu,  B. Alam,  B. Albrecht,
 A. Aldossary,  E. Alguire,  J. H. Andersen,  D. Barton,  K. Begam,  A. Behn,
 Y. A. Bernard,  E. J. Berquist,  H. Burton,  A. Carreras,  K. Carter-Fenk,
 R. Chakraborty,  A. D. Chien,  K. D. Closser,  V. Cofer-Shabica,
 S. Dasgupta,  Jia Deng,  M. de Wergifosse,  M. Diedenhofen,  Hainam Do,
 S. Ehlert,  Po-Tung Fang,  S. Fatehi,  Qingguo Feng,  T. Friedhoff,
 J. Gayvert,  Qinghui Ge,  G. Gidofalvi,  M. Goldey,  J. Gomes,
 C. Gonzalez-Espinoza,  S. Gulania,  A. Gunina,  M. W. D. Hanson-Heine,
 P. H. P. Harbach,  A. W. Hauser,  M. F. Herbst,  M. Hernandez Vera,
 M. Hodecker,  Z. C. Holden,  S. Houck,  Xunkun Huang,  Kerwin Hui,
 B. C. Huynh,  M. Ivanov,  Hyunjun Ji,  Hanjie Jiang,  B. Kaduk,  S. Kaehler,
 K. Khistyaev,  Jaehoon Kim,  P. Klunzinger,  Z. Koczor-Benda,
 Joong Hoon Koh,  D. Kosenkov,  L. Koulias,  T. Kowalczyk,  C. M. Krauter,
 K. Kue,  A. Kunitsa,  T. Kus,  A. Landau,  K. V. Lawler,  D. Lefrancois,
 S. Lehtola,  Rain Li,  Yi-Pei Li,  Jiashu Liang,  M. Liebenthal,
 Hung-Hsuan Lin,  You-Sheng Lin,  Fenglai Liu,  Kuan-Yu Liu,
 M. Loipersberger,  A. Luenser,  A. Manjanath,  P. Manohar,  E. Mansoor,
 S. F. Manzer,  Shan-Ping Mao,  A. V. Marenich,  T. Markovich,  S. Mason,
 S. A. Maurer,  P. F. McLaughlin,  M. F. S. J. Menger,  J.-M. Mewes,
 S. A. Mewes,  P. Morgante,  J. W. Mullinax,  K. J. Oosterbaan,  G. Paran,
 Alexander C. Paul,  Suranjan K. Paul,  F. Pavosevic,  Zheng Pei,  S. Prager,
 E. I. Proynov,  E. Ramos,  B. Rana,  A. E. Rask,  A. Rettig,  R. M. Richard,
 F. Rob,  E. Rossomme,  T. Scheele,  M. Scheurer,  M. Schneider,
 N. Sergueev,  S. M. Sharada,  W. Skomorowski,  D. W. Small,  C. J. Stein,
 Yu-Chuan Su,  E. J. Sundstrom,  Zhen Tao,  J. Thirman,  T. Tsuchimochi,
 N. M. Tubman,  S. P. Veccham,  O. Vydrov,  J. Wenzel,  J. Witte,  A. Yamada,
 Kun Yao,  S. Yeganeh,  S. R. Yost,  A. Zech,  Igor Ying Zhang,  Xing Zhang,
 Yu Zhang,  D. Zuev,  A. Aspuru-Guzik,  A. T. Bell,  N. A. Besley,
 K. B. Bravaya,  B. R. Brooks,  D. Casanova,  Jeng-Da Chai,  S. Coriani,
 C. J. Cramer,  A. E. DePrince, III,  R. A. DiStasio Jr.,  A. Dreuw,
 B. D. Dunietz,  T. R. Furlani,  W. A. Goddard III,  S. Grimme,
 S. Hammes-Schiffer,  T. Head-Gordon,  W. J. Hehre,  Chao-Ping Hsu,
 T.-C. Jagau,  Yousung Jung,  A. Klamt,  Jing Kong,  D. S. Lambrecht,
 WanZhen Liang,  N. J. Mayhall,  C. W. McCurdy,  J. B. Neaton,
 C. Ochsenfeld,  J. A. Parkhill,  R. Peverati,  V. A. Rassolov,  Yihan Shao,
 L. V. Slipchenko,  T. Stauch,  R. P. Steele,  J. E. Subotnik,
 A. J. W. Thom,  A. Tkatchenko,  D. G. Truhlar,  T. Van Voorhis,
 T. A. Wesolowski,  K. B. Whaley,  H. L. Woodcock III,  P. M. Zimmerman,
 S. Faraji,  P. M. W. Gill,  M. Head-Gordon,  J. M. Herbert,  A. I. Krylov

 Additional authors for Version 5.4.1:
 S. Kotaru,  Shaozhi Li,  Xiangyuan Li,  F. Matz,  A. Molle,  Haisheng Ren,
 Yingli Su,  Hung-Yi Tsai,  C. Utku,  Fang Wang

 Contributors to earlier versions of Q-Chem not listed above:
 R. D. Adamson,  B. Austin,  R. Baer,  J. Baker,  G. J. O. Beran,
 K. Brandhorst,  S. T. Brown,  E. F. C. Byrd,  A. K. Chakraborty,
 G. K. L. Chan,  Chun-Min Chang,  Yunqing Chen,  C.-L. Cheng,
 Siu Hung Chien,  D. M. Chipman,  D. L. Crittenden,  H. Dachsel,
 R. J. Doerksen,  A. D. Dutoi,  R. G. Edgar,  J. Fosso-Tande,
 L. Fusti-Molnar,  D. Ghosh,  A. Ghysels,  A. Golubeva-Zadorozhnaya,
 J. Gonthier,  M. S. Gordon,  S. R. Gwaltney,  G. Hawkins,  J. E. Herr,
 A. Heyden,  S. Hirata,  E. G. Hohenstein,  G. Kedziora,  F. J. Keil,
 C. Kelley,  Jihan Kim,  R. A. King,  R. Z. Khaliullin,  P. P. Korambath,
 W. Kurlancheek,  A. Laurent,  A. M. Lee,  M. S. Lee,  S. V. Levchenko,
 Ching Yeh Lin,  D. Liotard,  E. Livshits,  R. C. Lochan,  I. Lotan,
 L. A. Martinez-Martinez,  P. E. Maslen,  N. Nair,  D. P. O'Neill,
 D. Neuhauser,  E. Neuscamman,  C. M. Oana,  R. Olivares-Amaya,  R. Olson,
 T. M. Perrine,  B. Peters,  P. A. Pieniazek,  A. Prociuk,  Y. M. Rhee,
 J. Ritchie,  M. A. Rohrdanz,  E. Rosta,  N. J. Russ,  H. F. Schaefer III,
 M. W. Schmidt,  N. E. Schultz,  S. Sharma,  N. Shenvi,  C. D. Sherrill,
 A. C. Simmonett,  A. Sodt,  T. Stein,  D. Stuck,  K. S. Thanthiriwatte,
 V. Vanovschi,  L. Vogt,  Tao Wang,  A. Warshel,  M. A. Watson,
 C. F. Williams,  Q. Wu,  X. Xu,  Jun Yang,  W. Zhang,  Yan Zhao

 Please cite Q-Chem as follows:
 Y. Shao et al., Mol. Phys. 113, 184-215 (2015)
 DOI: 10.1080/00268976.2014.952696

 Q-Chem 5.4.1 for Intel X86 EM64T Linux

 Parts of Q-Chem use Armadillo 9.900.5 (Nocturnal Misbehaviour).
 http://arma.sourceforge.net/

 Q-Chem begins on Wed Jun  1 23:30:40 2022

 Host: p09r14n13.grace.hpc.yale.internal
0

     Scratch files written to /home/tl686/scratch60/qchem_dev/scratch/qchem244501//
 Processing $rem in /home/tl686/qchem_dev/qchem/config/preferences:
 Processing $rem in /home/tl686/.qchemrc:
Applying user defined connections for MM calculations
The previous job contains 0 fragments, simply inherited here

 Checking the input file for inconsistencies... 	...done.

--------------------------------------------------------------
User input:
--------------------------------------------------------------

$molecule
READ
$end

$qm_atoms
1:11
$end

$force_field_params
NumAtomTypes 3
AtomType -1   0.0238     3.11   0.2868
AtomType -2   0.07124    3.30   0.6597
AtomType -3  -0.0760     3.09   0.1434
$end

$rem
     JOBTYPE  freq
     METHOD   bp86
     BASIS    def2-msvp
     MAX_SCF_CYCLES   800
     INPUT_BOHR TRUE
     SYM_IGNORE TRUE
     SCF_GUESS     read
     user_connect            true
     qm_mm_interface         ONIOM
     force_field             oplsaa
$end

--------------------------------------------------------------

    3   -1830.5110448419      7.38E-10 Convergence criterion met
 Total energy in the final basis set = -1828.24392408

                    Orbital Energies (a.u.)
 --------------------------------------------------------------

 Alpha MOs
 -- Occupied --
******** -29.6374 -25.5977 -25.5859 -25.5794 -18.8947 -18.8871 -18.8826
-18.8789 -18.8692 -10.0595 -10.0562 -10.0513 -10.0496 -10.0455  -3.3210
 -2.1577  -2.1347  -2.1199  -1.0747  -1.0648  -1.0469  -1.0277  -1.0148
 -0.5757  -0.5298  -0.5219  -0.5206  -0.5136  -0.4590  -0.4461  -0.4449
 -0.4334  -0.4297  -0.4245  -0.4219  -0.4205  -0.4142  -0.4109  -0.4005
 -0.3989  -0.3886  -0.3856  -0.3750  -0.2805  -0.2704  -0.2374  -0.2184

          Ground-State Mulliken Net Atomic Charges

     Atom                 Charge (a.u.)
  ----------------------------------------
      1 Fe                   -0.484775
      2 C                     0.230723
      3 C                     0.248922
      4 C                     0.205515
      5 C                     0.216578
      6 C                     0.197862
      7 O                    -0.094572
      8 O                    -0.117941
      9 O                    -0.088457
     10 O                    -0.161157
     11 O                    -0.152698
  ----------------------------------------
  Sum of atomic charges =     0.000000

                    Cartesian Multipole Moments
 -----------------------------------------------------------------
    Charge (ESU x 10^10)
                -0.0000
    Dipole Moment (Debye)
         X      -0.0215128885      Y       0.1900714085      Z       0.9256547904
       Tot       0.9452125347
    Quadrupole Moments (Debye-Ang)
        XX     -70.9614     XY       7.4782     YY     -62.9297
        XZ      37.3124     YZ      11.6856     ZZ    -113.5092
