 Q-Chem 5.4 (devel), Q-Chem, Inc., Pleasanton, CA (2021)
 Q-Chem 5.4.1 for Intel X86 EM64T Linux

User input:
--------------------------------------------------------------
$molecule
0   1
 Fe 841.19954053 -63.78822155 50.27696894    -1  0   0   0   0
C 842.56582498 -66.85833118 51.38922753    -2  0   0   0   0
C 840.52765577 -60.77946216 49.01696962    -2  0   0   0   0
C 837.97378531 -64.07870036 51.46823171    -2  0   0   0   0
C 843.07220047 -62.24460121 52.66500163    -2  0   0   0   0
C 841.51191563 -64.70077302 46.96195394    -2  0   0   0   0
O 843.30959194 -68.78904629 52.11765844    -3  0   0   0   0
O 840.29398403 -58.74285529 48.05576678    -3  0   0   0   0
O 835.88721192 -63.92664507 52.32419891    -3  0   0   0   0
O 844.25554952 -61.24013508 54.19361117    -3  0   0   0   0
O 841.51109220 -64.53468241 44.65735968    -3  0   0   0   0
H 817.01829997 -77.89957728 62.23706043      6     13    0    0    0
C 816.99166443 -77.07246853 64.11825424     1     12    14    15    16
H 815.34638447 -75.92013904 64.37332030     6     13    0    0    0
H 816.85722316 -78.71276619 65.38973067     6     13    0    0    0
C 819.45117792 -75.58458584 64.47205361     2     13    17    18    19
H 820.36119895 -75.10061749 62.69326711     6     16    0    0    0
H 819.29115700 -73.90191446 65.69460528     6     16    0    0    0
C 821.40527952 -77.39386362 65.65844031     2     16    20   21   22
H 820.56762893 -78.42046095 67.28397750     6     19    0    0    0
H 821.85877065 -78.87365135 64.36351024     6     19    0    0    0
C 823.85939698 -76.03826519 66.35033916     2     19   23   24   25
H 824.75670668 -74.92693264 64.96697749     6    22    0    0    0
H 823.57998175 -74.94475514 68.04258605     6    22    0    0    0
C 826.02090312 -77.98396656 66.91829675     2    22   26   27   28
H 825.37900938 -79.35155689 68.22645486     6    25    0    0    0
H 826.16542210 -79.19087778 65.16364102     6    25    0    0    0
C 828.61145718 -76.91529156 67.70511861     2    25   29   30   31
H 829.16128209 -75.47324546 66.35469090     6    28    0    0    0
H 828.50927686 -76.05842956 69.54882882     6    28    0    0    0
C 830.50640142 -79.18494126 67.70856029     2    28   32   33   34
H 829.95925370 -81.05449837 68.15199851     6    31    0    0    0
H 831.02489638 -79.59317921 65.66792964     6    31    0    0    0
C 832.78391855 -78.54952891 69.46736625     2    31   35   36   37
H 833.72460662 -76.78825042 68.87718396     6    34    0    0    0
H 832.32644589 -78.25398879 71.39524625     6    34    0    0    0
C 834.60357881 -80.84343981 69.42797208     2    34   38   39   40
H 833.51591601 -82.39225923 70.11638032     6    37    0    0    0
H 835.16637441 -81.15194000 67.56019464     6    37    0    0    0
C 836.93579590 -80.73200065 71.23095795     2    37   41   42   43
H 838.00576953 -79.05480421 70.84102006     6    40    0    0    0
H 836.10612877 -80.39819199 73.10798711     6    40    0    0    0
C 838.60628813 -83.16024108 71.40804302     2    40   44   45   46
H 837.44599100 -84.66751489 72.19080380     6    43    0    0    0
H 838.98977882 -83.81785040 69.52010327     6    43    0    0    0
C 841.26977407 -82.26293901 72.27871131     1    43   47   48   49
H 841.16341578 -81.64965630 74.26328148     6    46    0    0    0
H 842.11552881 -80.84745554 71.04855909     6    46    0    0    0
H 842.49679695 -83.99705054 72.37800002     6    46    0    0    0
H 848.65373844 -70.15498930 56.76582321     6     51    0    0    0
C 847.76449614 -70.13453713 58.59012404     1     50    52    53    54
H 849.27484024 -70.30426739 59.92981150     6     51    0    0    0
H 846.60454558 -68.52740571 59.06235950     6     51    0    0    0
C 846.04387369 -72.57647764 58.71209217     2     51    55    56    57
H 844.28046992 -72.34204848 57.82434201     6     54    0    0    0
H 847.26540971 -73.98163632 57.71534655     6     54    0    0    0
C 845.52621383 -73.41822959 61.43141384     2     54    58   59   60
H 844.43067702 -71.91357457 62.33984033     6     57    0    0    0
H 844.40454422 -75.18358244 61.48874487     6     57    0    0    0
C 847.96856569 -73.80975080 63.10334431     2     57   61   62   63
H 849.40151623 -75.03430429 62.10769991     6    60    0    0    0
H 848.96477276 -72.02336667 63.40577599     6    60    0    0    0
C 847.31637866 -75.20612857 65.52866370     2    60   64   65   66
H 845.90466301 -74.12665006 66.66478707     6    63    0    0    0
H 846.40574200 -77.12811910 64.96441273     6    63    0    0    0
C 849.55186018 -75.71360299 67.09030842     2    63   67   68   69
H 848.97995966 -76.78246057 68.74042279     6    66    0    0    0
H 850.73745476 -77.13765923 66.24444612     6    66    0    0    0
C 851.01903469 -73.27102724 67.88031583     2    66   70   71   72
H 851.82969776 -72.43548984 66.18975136     6    69    0    0    0
H 849.49703354 -71.92751267 68.46416017     6    69    0    0    0
C 853.01310463 -73.77541697 69.82680460     2    69   73   74   75
H 853.12924535 -71.83580969 70.70976056     6    72    0    0    0
H 852.30456037 -75.08540607 71.06583651     6    72    0    0    0
C 855.61669452 -74.43591735 68.64744340     2    72   76   77   78
H 855.32493155 -76.00070160 67.24106702     6    75    0    0    0
H 856.45198976 -72.99957868 67.44802707     6    75    0    0    0
C 857.43760935 -75.46095738 70.61563559     2    75   79   80   81
H 857.91667378 -73.99674272 71.96977329     6    78    0    0    0
H 856.64698539 -77.05120671 71.63968191     6    78    0    0    0
C 859.76573915 -76.79115027 69.30568431     2    78   82   83   84
H 859.06867954 -78.17418391 68.12097293     6    81    0    0    0
H 860.72054683 -75.53944091 68.03309054     6    81    0    0    0
C 861.91603170 -77.52317293 71.15012335     1    81   85   86   87
H 862.79953813 -79.22263330 70.47641622     6    84    0    0    0
H 860.99926309 -78.09357863 72.97945068     6    84    0    0    0
H 863.20558093 -75.83877227 71.55716966     6    84    0    0    0
H 831.72287568 -59.66401251 83.23077196     6     89    0    0    0
C 832.39839091 -61.66488081 83.15015293     1     88    90    91    92
H 830.78714140 -62.69397545 84.03773791     6     89    0    0    0
H 832.73746797 -62.36308572 81.20579942     6     89    0    0    0
C 834.84988751 -61.93741096 84.70916815     2     89    93    94    95
H 836.12598636 -60.30877536 84.14070700     6     92    0    0    0
H 834.51130394 -61.42841743 86.62463759     6     92    0    0    0
C 836.28979912 -64.33115789 84.42027240     2     92    96   97   98
H 835.09190901 -65.81601898 84.94038944     6     95    0    0    0
H 836.71265150 -64.41411260 82.45280262     6     95    0    0    0
C 838.84196000 -64.37842140 85.92663768     2     95   99   100   101
H 839.98964300 -62.95057294 85.00437543     6    98    0    0    0
H 838.55256116 -63.79518888 87.81586767     6    98    0    0    0
C 840.23527651 -66.88095234 85.84445542     2    98   102   103   104
H 838.76752049 -68.26415667 85.98044125     6    101    0    0    0
H 841.11644292 -67.13396437 84.05067252     6    101    0    0    0
C 842.40824625 -67.15351540 87.82400806     2    101   105   106   107
H 843.89397472 -65.70085691 87.42657344     6    104    0    0    0
H 841.53689976 -66.84330349 89.66930102     6    104    0    0    0
C 843.65513786 -69.63723263 87.81643988     2    104   108   109   110
H 842.38914581 -71.17874589 88.32314024     6    107    0    0    0
H 844.59426212 -70.03509334 85.97704138     6    107    0    0    0
C 845.63333313 -69.76810341 89.83608745     2    107   111   112   113
H 846.72847003 -68.13696472 89.76564377     6    110    0    0    0
H 844.75304942 -69.75667903 91.59315488     6    110    0    0    0
C 847.13224821 -72.31978991 89.39433162     2    110   114   115   116
H 845.80046016 -74.03793442 89.41864507     6    113    0    0    0
H 848.07137688 -72.24331130 87.54352913     6    113    0    0    0
C 849.28171929 -72.43458513 91.48065826     2    113   117   118   119
H 850.74354544 -70.96990375 91.19139491     6    116    0    0    0
H 848.30399266 -72.07920754 93.28492195     6    116    0    0    0
C 850.50854352 -75.15492076 91.44396594     2    116   120   121   122
H 851.45032871 -75.33383148 93.33524790     6    119    0    0    0
H 849.13178261 -76.67709537 91.35554997     6    119    0    0    0
C 852.38931766 -75.37297558 89.16344462     1    119   123   124   125
H 853.73296918 -77.00218396 89.14451943     6    122    0    0    0
H 853.47859590 -73.68533956 88.72640909     6    122    0    0    0
H 851.19177737 -75.41229531 87.45050787     6    122    0    0    0
H 830.76588307 -47.75756747 74.67541137     6     127    0    0    0
C 830.60760578 -48.09027684 72.60146692     1     126    128    129    130
H 832.40016282 -47.92728713 71.77719130     6     127    0    0    0
H 829.52711146 -49.77212562 72.21113485     6     127    0    0    0
C 828.96317696 -46.00278381 71.52654129     2     127    131    132    133
H 826.99262394 -45.66146141 72.08801433     6     130    0    0    0
H 829.73052194 -44.15828486 72.14938837     6     130    0    0    0
C 829.03454890 -45.90385297 68.71491029     2     130    134   135   136
H 828.42524090 -44.06883189 68.13034896     6     133    0    0    0
H 831.03250422 -46.01501752 67.79497741     6     133    0    0    0
C 827.47946932 -47.88238128 67.34324993     2     133   137   138   139
H 828.23446437 -49.60526539 67.94133029     6    136    0    0    0
H 825.53306644 -47.74110009 68.03301913     6    136    0    0    0
C 827.97035639 -47.60697321 64.43331697     2    136   140   141   142
H 827.15153020 -45.78834511 63.83333616     6    139    0    0    0
H 829.96895186 -47.44581882 64.14584603     6    139    0    0    0
C 826.91226525 -49.84386948 62.79289453     2    139   143   144   145
H 827.23866276 -51.85508425 63.57318517     6    142    0    0    0
H 824.82937742 -49.63208596 62.73213271     6    142    0    0    0
C 827.89410416 -49.78888762 60.02643461     2    142   146   147   148
H 826.98486469 -48.16274980 59.05475601     6    145    0    0    0
H 829.94974000 -49.64091607 60.04728490     6    145    0    0    0
C 826.96819118 -51.92377908 58.28176887     2    145   149   150   151
H 827.86486096 -53.61352404 59.05320794     6    148    0    0    0
H 824.92517269 -52.19919868 58.32847760     6    148    0    0    0
C 827.91414836 -51.75751966 55.50947908     2    148   152   153   154
H 827.28321904 -50.03011061 54.63105812     6    151    0    0    0
H 829.94173407 -51.54515564 55.35540039     6    151    0    0    0
C 826.86147878 -53.72421337 53.66072314     2    151   155   156   157
H 827.98084736 -53.80369719 51.92663743     6    154    0    0    0
H 827.01358310 -55.58812173 54.43180409     6    154    0    0    0
C 823.89606780 -53.39424844 53.16812397     2    154   158   159   160
H 822.72741644 -53.05640291 54.90093293     6    157    0    0    0
H 823.75920353 -51.59129164 52.11261642     6    157    0    0    0
C 822.75621273 -55.64908135 51.71426863     1    157   161   162   163
H 820.85661986 -55.02103924 51.32722551     6    160    0    0    0
H 822.94285339 -57.29687857 52.95113485     6    160    0    0    0
H 823.64339816 -56.10589158 49.88296399     6    160    0    0    0
H 840.23383721 -50.08715245 82.23685654     6     165    0    0    0
C 838.93551238 -48.51530243 81.96796625     1     164    166    167    168
H 837.06729956 -49.28975155 82.21632672     6     165    0    0    0
H 839.43707397 -47.01939185 83.45791358     6     165    0    0    0
C 839.24806736 -47.48940228 79.23910086     2     165    169    170    171
H 841.13260829 -46.83218680 79.10074884     6     168    0    0    0
H 839.08527209 -49.20440514 78.04073237     6     168    0    0    0
C 837.61037477 -45.10679409 78.80847462     2     168    172   173   174
H 835.58138203 -45.42063300 78.91863197     6     171    0    0    0
H 838.18693380 -43.82599746 80.22052719     6     171    0    0    0
C 838.26728214 -43.91213082 76.29508694     2     171   175   176   177
H 840.29051042 -43.58055389 75.91863078     6    174    0    0    0
H 837.50546266 -45.24521151 74.98668084     6    174    0    0    0
C 836.97806626 -41.36340127 75.89316431     2    174   178   179   180
H 835.01324252 -41.33089718 76.57175495     6    177    0    0    0
H 838.27913683 -39.97123914 76.80158873     6    177    0    0    0
C 836.93363798 -40.42440575 73.22380548     2    177   181   182   183
H 838.80967514 -39.93868475 72.57945809     6    180    0    0    0
H 835.97331086 -41.60476372 71.85600373     6    180    0    0    0
C 835.71525943 -37.83117328 73.04372587     2    180   184   185   186
H 833.72602528 -37.69815011 73.64867860     6    183    0    0    0
H 836.69385328 -36.47852359 74.27800425     6    183    0    0    0
C 835.74264707 -36.77377032 70.24029120     2    183   187   188   189
H 837.68899877 -36.81597310 69.69921789     6    186    0    0    0
H 834.67587714 -38.01822233 69.06047265     6    186    0    0    0
C 834.83827942 -34.00964901 69.81504932     2    186   190   191   192
H 832.90870927 -33.71930503 70.57921247     6    189    0    0    0
H 836.06132602 -32.73245324 70.80399929     6    189    0    0    0
C 834.85514774 -33.27669319 67.05134639     2    189   193   194   195
H 836.81530768 -33.36942136 66.27833969     6    192    0    0    0
H 833.60675618 -34.67531229 66.04854992     6    192    0    0    0
C 833.89785523 -30.55300465 67.21414502     2    192   196   197   198
H 831.99905641 -30.65645046 67.90644937     6    195    0    0    0
H 835.03726407 -29.41331884 68.54784913     6    195    0    0    0
C 834.05862773 -29.18402400 64.57092024     1    195   199   200   201
H 833.49440655 -27.14079391 64.62343796     6    198    0    0    0
H 832.80314318 -30.17316700 63.25703635     6    198    0    0    0
H 836.02378063 -29.21981016 63.89933244     6    198    0    0    0
H 850.50742731 -51.52206024 66.90131626     6     203    0    0    0
C 851.28055060 -49.77838873 67.50280279     1     202    204    205    206
H 853.02613200 -49.48520226 66.51391132     6     203    0    0    0
H 849.83196618 -48.54535796 66.70876802     6     203    0    0    0
C 851.12962049 -49.29270966 70.51889608     2     203    207    208    209
H 850.47388372 -47.27438456 70.89385648     6     206    0    0    0
H 849.61005950 -50.33573568 71.15543967     6     206    0    0    0
C 853.72261981 -49.93772598 71.82904758     2     206    210   211   212
H 853.52822736 -50.51980840 73.84707200     6     209    0    0    0
H 854.48297469 -51.85759451 71.38026663     6     209    0    0    0
C 855.77507240 -48.00442576 71.22627187     2     209   213   214   215
H 855.53519007 -47.44273559 69.27514362     6    212    0    0    0
H 855.54541422 -46.50909713 72.54956931     6    212    0    0    0
C 858.34436747 -49.09494270 71.40776873     2    212   216   217   218
H 858.64834572 -49.82933674 73.28013101     6    215    0    0    0
H 858.49984815 -50.69729611 70.05535551     6    215    0    0    0
C 860.48767436 -47.17856047 70.93284726     2    215   219   220   221
H 860.60602923 -46.60691500 68.99648907     6    218    0    0    0
H 860.17111410 -45.32883566 71.83978315     6    218    0    0    0
C 863.19517239 -47.91439303 71.74248399     2    218   222   223   224
H 862.96420304 -48.83112410 73.62364319     6    221    0    0    0
H 863.88164538 -49.42629189 70.47998528     6    221    0    0    0
C 865.09136945 -45.77121748 71.81212992     2    221   225   226   227
H 865.91443908 -45.20806905 69.92080178     6    224    0    0    0
H 863.95686466 -44.10641933 72.20334505     6    224    0    0    0
C 867.27851722 -46.17109765 73.70456521     2    224   228   229   230
H 866.61317347 -45.84227484 75.55863976     6    227    0    0    0
H 867.95978836 -48.08924330 73.68615354     6    227    0    0    0
C 869.47927406 -44.30399191 73.27230100     2    227   231   232   233
H 870.31837136 -44.90631936 71.40509616     6    230    0    0    0
H 868.83742412 -42.37261775 73.30237656     6    230    0    0    0
C 871.52513258 -44.78827857 75.17293005     2    230   234   235   236
H 870.88348291 -43.82215457 76.93734074     6    233    0    0    0
H 871.29004830 -46.72202095 75.44163673     6    233    0    0    0
C 874.27118830 -43.87110984 74.35325195     1    233   237   238   239
H 875.59125589 -44.49613827 75.76162321     6    236    0    0    0
H 874.47114487 -41.75234868 74.44505013     6    236    0    0    0
H 874.77134010 -44.38018719 72.41027118     6    236    0    0    0
H 851.72385246 -79.11398330 72.10155902     6     241    0    0    0
C 850.38963265 -79.48545786 73.55211987     1     240    242    243    244
H 850.27340041 -77.83918940 74.83305364     6     241    0    0    0
H 848.60499961 -79.61796260 72.73607544     6     241    0    0    0
C 851.07408743 -82.00943690 74.81270696     2     241    245    246    247
H 852.94610275 -81.68587306 75.69899716     6     244    0    0    0
H 849.79191240 -82.26305951 76.47409178     6     244    0    0    0
C 850.70817508 -84.49134421 73.21569898     2     244    248   249   250
H 850.20403026 -85.99675013 74.54080736     6     247    0    0    0
H 849.08999771 -84.35803173 72.05741633     6     247    0    0    0
C 852.94967460 -85.24575755 71.61717796     2     247   251   252   253
H 852.30310190 -86.63308415 70.19442811     6    250    0    0    0
H 853.54630995 -83.81196853 70.40294678     6    250    0    0    0
C 855.21903064 -86.26372531 72.98282973     2    250   254   255   256
H 856.43966568 -84.70044208 73.42888808     6    253    0    0    0
H 854.74732502 -87.14045071 74.77396540     6    253    0    0    0
C 856.90891521 -88.11747442 71.57113038     2    253   257   258   259
H 858.15860115 -89.16042231 72.82781859     6    256    0    0    0
H 855.83021751 -89.62734631 70.79486487     6    256    0    0    0
C 858.69569956 -86.84693202 69.63943531     2    256   260   261   262
H 857.58324074 -85.83231810 68.28152366     6    259    0    0    0
H 859.85024254 -85.31644190 70.37361353     6    259    0    0    0
C 860.39458358 -88.64604739 68.18831865     2    259   263   264   265
H 861.38826437 -89.81781410 69.52047282     6    262    0    0    0
H 859.21347080 -89.88672464 67.25344236     6    262    0    0    0
C 862.19664699 -87.41400928 66.29804953     2    262   266   267   268
H 861.14228299 -86.82131735 64.74093445     6    265    0    0    0
H 862.89692554 -85.53240771 67.01633523     6    265    0    0    0
C 864.41617840 -89.13441246 65.78177776     2    265   269   270   271
H 865.76470401 -89.47384944 67.32474514     6    268    0    0    0
H 863.63141164 -90.94782636 65.20640682     6    268    0    0    0
C 866.15977122 -87.94938467 63.76858506     2    268   272   273   274
H 865.19411681 -87.60024800 61.82118170     6    271    0    0    0
H 866.98245087 -86.13405316 64.37345795     6    271    0    0    0
C 868.52117503 -89.69581953 63.13782275     1    271   275   276   277
H 869.37978132 -90.22549246 64.93501563     6    274    0    0    0
H 869.91690720 -88.55077973 62.08192116     6    274    0    0    0
H 867.80099214 -91.29624537 61.96071383     6    274    0    0    0
H 849.65458517 -53.53591990 80.04432423     6     279    0    0    0
C 850.74800353 -55.20970996 80.07711070     1     278    280    281    282
H 852.01347250 -55.17117686 81.59644533     6     279    0    0    0
H 849.64763551 -56.93794697 80.33055078     6     279    0    0    0
C 852.42282912 -55.45995573 77.68556479     2     279    283    284    285
H 851.37875879 -55.58570432 75.93071388     6     282    0    0    0
H 853.34019725 -53.60816744 77.68115334     6     282    0    0    0
C 854.44204916 -57.49651251 77.73182431     2     282    286   287   288
H 855.32879870 -57.79512414 79.56660195     6     285    0    0    0
H 853.36587122 -59.25048435 77.38344908     6     285    0    0    0
C 856.49777050 -57.34085519 75.53763476     2     285   289   290   291
H 855.64675518 -57.65933123 73.66805098     6    288    0    0    0
H 857.30975159 -55.41428759 75.44367859     6    288    0    0    0
C 858.70664401 -59.24325277 75.77561651     2    288   292   293   294
H 859.36374901 -59.19175596 77.84433701     6    291    0    0    0
H 857.67755382 -61.08083692 75.74617390     6    291    0    0    0
C 860.65017404 -58.93796451 73.70157165     2    291   295   296   297
H 859.82898232 -59.43556617 71.88847714     6    294    0    0    0
H 861.11664394 -56.93578931 73.68177522     6    294    0    0    0
C 863.02258508 -60.50560729 73.98101756     2    294   298   299   300

   17   -1830.5098562238      4.72E-09 Convergence criterion met
 Total energy in the final basis set = -1828.18631732
 Total job time:  16.82s(wall), 30.13s(cpu)
        *  Thank you very much for using Q-Chem.  Have a nice day.  *

User input: 2 of 2

                  Welcome to Q-Chem
     A Quantum Leap Into The Future Of Chemistry

 Q-Chem 5.4 (devel), Q-Chem, Inc., Pleasanton, CA (2021)

 E. Epifanovsky,  A. T. B. Gilbert,  Xintian Feng,  Joonho Lee,  Yuezhi Mao,
 N. Mardirossian,  P. Pokhilko,  A. White,  M. Wormit,  M. P. Coons,
 A. L. Dempwolff,  Zhengting Gan,  D. Hait,  P. R. Horn,  L. D. Jacobson,
 I. Kaliman,  J. Kussmann,  A. W. Lange,  Ka Un Lao,  D. S. Levine,  Jie Liu,
 S. C. McKenzie,  A. F. Morrison,  K. Nanda,  F. Plasser,  D. R. Rehn,
 M. L. Vidal,  Zhi-Qiang You,  Ying Zhu,  B. Alam,  B. Albrecht,
 A. Aldossary,  E. Alguire,  J. H. Andersen,  D. Barton,  K. Begam,  A. Behn,
 Y. A. Bernard,  E. J. Berquist,  H. Burton,  A. Carreras,  K. Carter-Fenk,
 R. Chakraborty,  A. D. Chien,  K. D. Closser,  V. Cofer-Shabica,
 S. Dasgupta,  Jia Deng,  M. de Wergifosse,  M. Diedenhofen,  Hainam Do,
 S. Ehlert,  Po-Tung Fang,  S. Fatehi,  Qingguo Feng,  T. Friedhoff,
 J. Gayvert,  Qinghui Ge,  G. Gidofalvi,  M. Goldey,  J. Gomes,
 C. Gonzalez-Espinoza,  S. Gulania,  A. Gunina,  M. W. D. Hanson-Heine,
 P. H. P. Harbach,  A. W. Hauser,  M. F. Herbst,  M. Hernandez Vera,
 M. Hodecker,  Z. C. Holden,  S. Houck,  Xunkun Huang,  Kerwin Hui,
 B. C. Huynh,  M. Ivanov,  Hyunjun Ji,  Hanjie Jiang,  B. Kaduk,  S. Kaehler,
 K. Khistyaev,  Jaehoon Kim,  P. Klunzinger,  Z. Koczor-Benda,
 Joong Hoon Koh,  D. Kosenkov,  L. Koulias,  T. Kowalczyk,  C. M. Krauter,
 K. Kue,  A. Kunitsa,  T. Kus,  A. Landau,  K. V. Lawler,  D. Lefrancois,
 S. Lehtola,  Rain Li,  Yi-Pei Li,  Jiashu Liang,  M. Liebenthal,
 Hung-Hsuan Lin,  You-Sheng Lin,  Fenglai Liu,  Kuan-Yu Liu,
 M. Loipersberger,  A. Luenser,  A. Manjanath,  P. Manohar,  E. Mansoor,
 S. F. Manzer,  Shan-Ping Mao,  A. V. Marenich,  T. Markovich,  S. Mason,
 S. A. Maurer,  P. F. McLaughlin,  M. F. S. J. Menger,  J.-M. Mewes,
 S. A. Mewes,  P. Morgante,  J. W. Mullinax,  K. J. Oosterbaan,  G. Paran,
 Alexander C. Paul,  Suranjan K. Paul,  F. Pavosevic,  Zheng Pei,  S. Prager,
 E. I. Proynov,  E. Ramos,  B. Rana,  A. E. Rask,  A. Rettig,  R. M. Richard,
 F. Rob,  E. Rossomme,  T. Scheele,  M. Scheurer,  M. Schneider,
 N. Sergueev,  S. M. Sharada,  W. Skomorowski,  D. W. Small,  C. J. Stein,
 Yu-Chuan Su,  E. J. Sundstrom,  Zhen Tao,  J. Thirman,  T. Tsuchimochi,
 N. M. Tubman,  S. P. Veccham,  O. Vydrov,  J. Wenzel,  J. Witte,  A. Yamada,
 Kun Yao,  S. Yeganeh,  S. R. Yost,  A. Zech,  Igor Ying Zhang,  Xing Zhang,
 Yu Zhang,  D. Zuev,  A. Aspuru-Guzik,  A. T. Bell,  N. A. Besley,
 K. B. Bravaya,  B. R. Brooks,  D. Casanova,  Jeng-Da Chai,  S. Coriani,
 C. J. Cramer,  A. E. DePrince, III,  R. A. DiStasio Jr.,  A. Dreuw,
 B. D. Dunietz,  T. R. Furlani,  W. A. Goddard III,  S. Grimme,
 S. Hammes-Schiffer,  T. Head-Gordon,  W. J. Hehre,  Chao-Ping Hsu,
 T.-C. Jagau,  Yousung Jung,  A. Klamt,  Jing Kong,  D. S. Lambrecht,
 WanZhen Liang,  N. J. Mayhall,  C. W. McCurdy,  J. B. Neaton,
 C. Ochsenfeld,  J. A. Parkhill,  R. Peverati,  V. A. Rassolov,  Yihan Shao,
 L. V. Slipchenko,  T. Stauch,  R. P. Steele,  J. E. Subotnik,
 A. J. W. Thom,  A. Tkatchenko,  D. G. Truhlar,  T. Van Voorhis,
 T. A. Wesolowski,  K. B. Whaley,  H. L. Woodcock III,  P. M. Zimmerman,
 S. Faraji,  P. M. W. Gill,  M. Head-Gordon,  J. M. Herbert,  A. I. Krylov

 Additional authors for Version 5.4.1:
 S. Kotaru,  Shaozhi Li,  Xiangyuan Li,  F. Matz,  A. Molle,  Haisheng Ren,
 Yingli Su,  Hung-Yi Tsai,  C. Utku,  Fang Wang

 Contributors to earlier versions of Q-Chem not listed above:
 R. D. Adamson,  B. Austin,  R. Baer,  J. Baker,  G. J. O. Beran,
 K. Brandhorst,  S. T. Brown,  E. F. C. Byrd,  A. K. Chakraborty,
 G. K. L. Chan,  Chun-Min Chang,  Yunqing Chen,  C.-L. Cheng,
 Siu Hung Chien,  D. M. Chipman,  D. L. Crittenden,  H. Dachsel,
 R. J. Doerksen,  A. D. Dutoi,  R. G. Edgar,  J. Fosso-Tande,
 L. Fusti-Molnar,  D. Ghosh,  A. Ghysels,  A. Golubeva-Zadorozhnaya,
 J. Gonthier,  M. S. Gordon,  S. R. Gwaltney,  G. Hawkins,  J. E. Herr,
 A. Heyden,  S. Hirata,  E. G. Hohenstein,  G. Kedziora,  F. J. Keil,
 C. Kelley,  Jihan Kim,  R. A. King,  R. Z. Khaliullin,  P. P. Korambath,
 W. Kurlancheek,  A. Laurent,  A. M. Lee,  M. S. Lee,  S. V. Levchenko,
 Ching Yeh Lin,  D. Liotard,  E. Livshits,  R. C. Lochan,  I. Lotan,
 L. A. Martinez-Martinez,  P. E. Maslen,  N. Nair,  D. P. O'Neill,
 D. Neuhauser,  E. Neuscamman,  C. M. Oana,  R. Olivares-Amaya,  R. Olson,
 T. M. Perrine,  B. Peters,  P. A. Pieniazek,  A. Prociuk,  Y. M. Rhee,
 J. Ritchie,  M. A. Rohrdanz,  E. Rosta,  N. J. Russ,  H. F. Schaefer III,
 M. W. Schmidt,  N. E. Schultz,  S. Sharma,  N. Shenvi,  C. D. Sherrill,
 A. C. Simmonett,  A. Sodt,  T. Stein,  D. Stuck,  K. S. Thanthiriwatte,
 V. Vanovschi,  L. Vogt,  Tao Wang,  A. Warshel,  M. A. Watson,
 C. F. Williams,  Q. Wu,  X. Xu,  Jun Yang,  W. Zhang,  Yan Zhao

 Please cite Q-Chem as follows:
 Y. Shao et al., Mol. Phys. 113, 184-215 (2015)
 DOI: 10.1080/00268976.2014.952696

 Q-Chem 5.4.1 for Intel X86 EM64T Linux

 Parts of Q-Chem use Armadillo 9.900.5 (Nocturnal Misbehaviour).
 http://arma.sourceforge.net/

 Q-Chem begins on Wed Jun 22 16:41:41 2022

 Host: p09r14n13.grace.hpc.yale.internal
0

     Scratch files written to /home/tl686/scratch60/qchem_dev/scratch/qchem247367//
 Processing $rem in /home/tl686/qchem_dev/qchem/config/preferences:
 Processing $rem in /home/tl686/.qchemrc:
Applying user defined connections for MM calculations
The previous job contains 0 fragments, simply inherited here

 Checking the input file for inconsistencies... 	...done.

--------------------------------------------------------------
User input:
--------------------------------------------------------------

$molecule
READ
$end

$qm_atoms
1:11
$end

$force_field_params
NumAtomTypes 3
AtomType -1   0.0238     3.11   0.2868
AtomType -2   0.07124    3.30   0.6597
AtomType -3  -0.0760     3.09   0.1434
$end

$rem
     JOBTYPE  freq
     METHOD   bp86
     BASIS    def2-msvp
     MAX_SCF_CYCLES   800
     INPUT_BOHR TRUE
     SYM_IGNORE TRUE
     SCF_GUESS     read
     user_connect            true
     qm_mm_interface         ONIOM
     force_field             oplsaa
$end

--------------------------------------------------------------

    4   -1830.5098562230      6.14E-10 Convergence criterion met
 Total energy in the final basis set = -1828.18631732

                    Orbital Energies (a.u.)
 --------------------------------------------------------------

 Alpha MOs
 -- Occupied --
******** -29.6411 -25.6004 -25.5908 -25.5827 -18.8983 -18.8831 -18.8816
-18.8763 -18.8737 -10.0633 -10.0586 -10.0512 -10.0486 -10.0477  -3.3251
 -2.1597  -2.1415  -2.1237  -1.0703  -1.0619  -1.0368  -1.0306  -1.0151
 -0.5786  -0.5320  -0.5231  -0.5193  -0.5156  -0.4565  -0.4473  -0.4372
 -0.4361  -0.4312  -0.4284  -0.4275  -0.4193  -0.4072  -0.4058  -0.4001
 -0.3965  -0.3905  -0.3874  -0.3758  -0.2848  -0.2709  -0.2446  -0.2204

          Ground-State Mulliken Net Atomic Charges

     Atom                 Charge (a.u.)
  ----------------------------------------
      1 Fe                   -0.488278
      2 C                     0.221568
      3 C                     0.202075
      4 C                     0.261918
      5 C                     0.213586
      6 C                     0.226944
      7 O                    -0.094607
      8 O                    -0.140955
      9 O                    -0.139683
     10 O                    -0.101959
     11 O                    -0.160611
  ----------------------------------------
  Sum of atomic charges =     0.000000

                    Cartesian Multipole Moments
 -----------------------------------------------------------------
    Charge (ESU x 10^10)
                -0.0000
    Dipole Moment (Debye)
         X       0.3743045108      Y      -0.6223229816      Z       0.6348439759
       Tot       0.9645810666
    Quadrupole Moments (Debye-Ang)
        XX     263.3671     XY    -289.9381     YY     -26.8770
        XZ     292.9666     YZ     -37.4419     ZZ     -37.7423
