 Q-Chem 5.4 (devel), Q-Chem, Inc., Pleasanton, CA (2021)
 Q-Chem 5.4.1 for Intel X86 EM64T Linux

User input:
--------------------------------------------------------------
$molecule
0   1
 Fe 1118.37158496 41.36653658 -62.13261103    -1  0   0   0   0
C 1115.22290025 42.64417299 -62.35735464    -2  0   0   0   0
C 1120.83781755 41.10611386 -64.49294973    -2  0   0   0   0
C 1119.63761064 44.44424928 -61.27460289    -2  0   0   0   0
C 1118.89778188 40.43988383 -59.00810657    -2  0   0   0   0
C 1117.53692588 38.23244718 -63.03967374    -2  0   0   0   0
O 1113.18213294 43.40274264 -61.91997869    -3  0   0   0   0
O 1122.51712012 40.44636833 -65.76707300    -3  0   0   0   0
O 1120.37060631 46.48375629 -60.69643363    -3  0   0   0   0
O 1119.16288450 39.64343188 -56.98342181    -3  0   0   0   0
O 1117.04247897 36.10935537 -63.36257581    -3  0   0   0   0
H 1115.25473521 64.66254678 -47.53818763      6     13    0    0    0
C 1113.40955929 65.59107999 -47.70102168     1     12    14    15    16
H 1113.61361248 67.71328662 -47.37623598     6     13    0    0    0
H 1112.84508317 65.78908284 -49.71921265     6     13    0    0    0
C 1111.36980803 64.40842895 -46.03580569     2     13    17    18    19
H 1111.71174908 64.89811543 -44.07753495     6     16    0    0    0
H 1109.70547541 65.60435117 -46.62922940     6     16    0    0    0
C 1110.86115415 61.65503393 -46.37142560     2     16    20   21   22
H 1110.49242294 61.17931463 -48.36819760     6     19    0    0    0
H 1112.53595453 60.60529888 -45.93872090     6     19    0    0    0
C 1108.68810854 60.59610657 -44.76524806     2     19   23   24   25
H 1108.83302383 61.24810871 -42.81116444     6    22    0    0    0
H 1107.08706582 61.37582478 -45.72062975     6    22    0    0    0
C 1108.80810206 57.68904054 -45.09879366     2    22   26   27   28
H 1108.68659740 56.93860956 -47.05254962     6    25    0    0    0
H 1110.57476875 57.17361826 -44.34274921     6    25    0    0    0
C 1106.84946483 56.46591524 -43.29122002     2    25   29   30   31
H 1107.55370414 56.40594105 -41.36440148     6    28    0    0    0
H 1105.08127081 57.64599289 -43.17427995     6    28    0    0    0
C 1106.30761251 53.70131166 -44.10390633     2    28   32   33   34
H 1105.14325911 53.47602453 -45.67117291     6    31    0    0    0
H 1108.13177745 52.86994449 -44.58933726     6    31    0    0    0
C 1105.09312026 51.86867247 -41.93575961     2    31   35   36   37
H 1106.47714896 51.71990398 -40.27035151     6    34    0    0    0
H 1103.26092949 52.65487951 -41.13974777     6    34    0    0    0
C 1104.41327217 49.11595239 -42.54169359     2    34   38   39   40
H 1103.21482474 49.05255079 -44.26767899     6    37    0    0    0
H 1106.18193959 48.25428979 -43.13176334     6    37    0    0    0
C 1103.45796213 47.70920243 -40.06423166     2    37   41   42   43
H 1104.68073175 48.18519170 -38.50452178     6    40    0    0    0
H 1101.73714565 48.52993249 -39.36346559     6    40    0    0    0
C 1102.86737569 44.90938523 -40.37247032     2    40   44   45   46
H 1101.58091581 44.70656195 -41.96958045     6    43    0    0    0
H 1104.69077560 43.94113599 -40.66958333     6    43    0    0    0
C 1101.72834228 43.62194545 -38.03218808     1    43   47   48   49
H 1103.08271555 42.70913642 -36.71739024     6    46    0    0    0
H 1100.15943628 42.13926600 -38.55295408     6    46    0    0    0
H 1100.73487313 45.07606014 -36.81472785     6    46    0    0    0
H 1110.94797048 35.43302880 -52.22910768     6     51    0    0    0
C 1111.74908025 37.20788223 -53.05475120     1     50    52    53    54
H 1113.72263396 37.39755448 -52.21783524     6     51    0    0    0
H 1112.12533094 36.67538869 -55.04192567     6     51    0    0    0
C 1110.28976019 39.49267389 -52.73177275     2     51    55    56    57
H 1111.04392479 41.03817733 -53.74121802     6     54    0    0    0
H 1108.45122063 39.20722320 -53.39109252     6     54    0    0    0
C 1110.40834678 40.33512568 -49.85243486     2     54    58   59   60
H 1112.25948169 40.69333365 -49.27475330     6     57    0    0    0
H 1109.43092785 42.05435531 -49.70622565     6     57    0    0    0
C 1108.95280778 38.46199593 -48.14135360     2     57   61   62   63
H 1106.95845555 38.92028170 -48.14165180     6    60    0    0    0
H 1109.24521673 36.62488141 -48.83184630     6    60    0    0    0
C 1109.74399439 38.63899976 -45.35641322     2    60   64   65   66
H 1111.72232852 38.09724307 -45.14402700     6    63    0    0    0
H 1109.44267530 40.57870071 -44.81233334     6    63    0    0    0
C 1108.10321898 37.00195182 -43.54800636     2    63   67   68   69
H 1108.94083942 37.17260352 -41.78478873     6    66    0    0    0
H 1106.15361181 37.47015706 -43.27432809     6    66    0    0    0
C 1108.31590594 34.10678655 -43.84059203     2    66   70   71   72
H 1108.15690297 33.52775754 -45.87247782     6    69    0    0    0
H 1110.06987610 33.44752923 -43.01450647     6    69    0    0    0
C 1106.10661917 32.81615666 -42.41518856     2    69   73   74   75
H 1106.21271430 33.31427209 -40.36700761     6    72    0    0    0
H 1104.15993153 33.40710915 -42.92703933     6    72    0    0    0
C 1106.31632091 29.98716134 -42.87089887     2    72   76   77   78
H 1106.47259056 29.61007017 -44.92117617     6    75    0    0    0
H 1108.00789047 29.03600654 -41.99784764     6    75    0    0    0
C 1103.93750160 28.50672835 -42.04836068     2    75   79   80   81
H 1103.92097781 28.05363349 -40.03177686     6    78    0    0    0
H 1102.37337354 29.77596478 -42.38047097     6    78    0    0    0
C 1103.26956799 26.16889442 -43.66038219     2    78   82   83   84
H 1102.16714497 26.63956566 -45.37338937     6    81    0    0    0
H 1104.94747456 25.13642368 -44.44220414     6    81    0    0    0
C 1101.56609655 24.32136711 -41.95577364     1    81   85   86   87
H 1102.84522093 23.58117157 -40.69888410     6    84    0    0    0
H 1100.73317559 22.69016047 -42.83838116     6    84    0    0    0
H 1100.05337834 25.29329668 -41.01998423     6    84    0    0    0
H 1126.59708693 64.02148094 -33.52620598     6     89    0    0    0
C 1125.98145465 62.13985067 -34.28448575     1     88    90    91    92
H 1124.70233795 62.55442902 -35.82380226     6     89    0    0    0
H 1127.44081501 60.86342740 -34.84484525     6     89    0    0    0
C 1124.39362689 60.84805721 -32.15594210     2     89    93    94    95
H 1125.48624786 60.31202797 -30.50422367     6     92    0    0    0
H 1122.87955354 62.12714654 -31.83943973     6     92    0    0    0
C 1123.09222161 58.32948252 -32.98040297     2     92    96   97   98
H 1122.07564277 58.62968503 -34.77049740     6     95    0    0    0
H 1124.50705013 56.87935241 -33.52524773     6     95    0    0    0
C 1121.42848562 57.33580746 -30.71150472     2     95   99   100   101
H 1122.58662877 57.66404491 -29.15743018     6    98    0    0    0
H 1119.88722041 58.63145512 -30.55030900     6    98    0    0    0
C 1120.40157303 54.71534135 -31.08447949     2    98   102   103   104
H 1119.82042825 54.41615718 -33.02658184     6    101    0    0    0
H 1121.95414220 53.40376678 -30.85627411     6    101    0    0    0
C 1118.17712901 54.08031307 -29.33283931     2    101   105   106   107
H 1118.94640431 54.08532564 -27.44392599     6    104    0    0    0
H 1116.76739496 55.49661423 -29.31756523     6    104    0    0    0
C 1117.27029229 51.40727238 -29.84502675     2    104   108   109   110
H 1117.23403462 51.12105869 -31.82013636     6    107    0    0    0
H 1118.64070744 50.01756023 -29.12348850     6    107    0    0    0
C 1114.64244058 50.86198630 -28.63631224     2    107   111   112   113
H 1114.37285125 51.73423582 -26.76642918     6    110    0    0    0
H 1113.46152605 51.95763350 -29.89189308     6    110    0    0    0
C 1113.84385076 48.04379397 -28.68621272     2    110   114   115   116
H 1114.47505410 47.11509863 -30.49722459     6    113    0    0    0
H 1114.95071706 46.93044574 -27.21243961     6    113    0    0    0
C 1110.95576852 47.51100596 -28.40832464     2    113   117   118   119
H 1110.34190994 47.97929811 -26.53883622     6    116    0    0    0
H 1109.95235741 48.88196359 -29.62167764     6    116    0    0    0
C 1110.30481432 44.61727136 -28.85667945     2    116   120   121   122
H 1108.43269942 44.16491194 -29.44562322     6    119    0    0    0
H 1111.36681368 44.24082089 -30.44773259     6    119    0    0    0
C 1111.45513992 42.90175400 -26.75240284     1    119   123   124   125
H 1110.75971780 40.96868534 -27.11508569     6    122    0    0    0
H 1110.94781694 43.34842285 -24.85278459     6    122    0    0    0
H 1113.40545417 43.07016226 -26.68502091     6    122    0    0    0
H 1145.02410813 49.72042334 -43.23859506     6     127    0    0    0
C 1143.36486426 48.86208564 -44.14702270     1     126    128    129    130
H 1143.68943069 46.96108592 -44.78888758     6     127    0    0    0
H 1142.00262249 48.21504120 -42.83583531     6     127    0    0    0
C 1142.30371222 50.44158340 -46.23029376     2     127    131    132    133
H 1142.24160176 52.42521207 -45.56994706     6     130    0    0    0
H 1143.48487774 50.39785560 -47.91391379     6     130    0    0    0
C 1139.69123385 49.57124256 -47.14769137     2     130    134   135   136
H 1139.89080579 47.56507041 -47.26355800     6     133    0    0    0
H 1138.31920296 49.72285511 -45.62982697     6     133    0    0    0
C 1138.89331128 50.89709229 -49.50724315     2     133   137   138   139
H 1138.48884755 52.91957398 -49.01625691     6    136    0    0    0
H 1140.24077805 51.12510061 -51.02075224     6    136    0    0    0
C 1136.34356393 49.91522030 -50.71467774     2    136   140   141   142
H 1136.47469608 47.85839320 -51.28268944     6    139    0    0    0
H 1134.82722388 50.02414213 -49.31035393     6    139    0    0    0
C 1135.86612450 51.50950926 -53.04704113     2    139   143   144   145
H 1136.03607642 53.60684392 -52.45321844     6    142    0    0    0
H 1137.62623647 51.55093158 -54.31503427     6    142    0    0    0
C 1133.59997677 50.47722661 -54.64690567     2    142   146   147   148
H 1134.37356215 48.53646227 -55.14934897     6    145    0    0    0
H 1132.06501216 50.21233403 -53.38352729     6    145    0    0    0
C 1133.14154165 51.99817795 -57.05301320     2    145   149   150   151
H 1131.85416482 53.54087140 -56.47132449     6    148    0    0    0
H 1134.99922598 52.82928131 -57.56504303     6    148    0    0    0
C 1131.92451420 50.45491882 -59.15935554     2    148   152   153   154
H 1133.20172849 49.00479653 -59.95833495     6    151    0    0    0
H 1130.29537810 49.32022154 -58.51192761     6    151    0    0    0
C 1131.28516054 52.05685036 -61.41363011     2    151   155   156   157
H 1130.57273643 53.91000650 -61.10715340     6    154    0    0    0
H 1133.21084909 52.48994987 -62.15604131     6    154    0    0    0
C 1129.89457420 50.62084395 -63.54933181     2    154   158   159   160
H 1130.92751019 49.08668234 -64.37460717     6    157    0    0    0
H 1127.98997647 49.99642460 -63.02933552     6    157    0    0    0
C 1129.83419704 52.48401479 -65.65626044     1    157   161   162   163
H 1128.58538589 53.94929880 -65.07033161     6    160    0    0    0
H 1128.70898289 51.47289208 -67.25679430     6    160    0    0    0
H 1131.76328722 53.26457337 -66.12327884     6    160    0    0    0
H 1131.76067705 34.92996000 -22.34306232     6     165    0    0    0
C 1133.63882316 34.16844917 -22.48199986     1     164    166    167    168
H 1134.77838975 35.45387602 -21.41429078     6     165    0    0    0
H 1133.90084359 32.22156103 -21.70998932     6     165    0    0    0
C 1134.45496862 33.87519373 -25.39698762     2     165    169    170    171
H 1133.03222233 33.11639253 -26.66210977     6     168    0    0    0
H 1134.49892893 35.81694158 -26.14046501     6     168    0    0    0
C 1137.02475036 32.76683245 -25.99813155     2     168    172   173   174
H 1138.30854097 33.70224300 -24.73044025     6     171    0    0    0
H 1137.14461800 30.70340844 -25.70535729     6     171    0    0    0
C 1137.90515136 33.00030160 -28.62883801     2     171   175   176   177
H 1136.91935589 31.85602568 -29.80600787     6    174    0    0    0
H 1137.81865433 35.15547621 -29.18129251     6    174    0    0    0
C 1140.71104490 32.24940476 -28.98617835     2    174   178   179   180
H 1141.94715918 33.77083586 -28.29169725     6    177    0    0    0
H 1141.39991350 30.61034759 -27.79798193     6    177    0    0    0
C 1141.30550323 31.95136744 -31.84572315     2    177   181   182   183
H 1140.19642293 30.53025197 -32.58218446     6    180    0    0    0
H 1140.61534723 33.71242450 -32.78159804     6    180    0    0    0
C 1144.04962876 32.26204517 -32.50172799     2    180   184   185   186
H 1144.40222180 34.07078749 -31.46879015     6    183    0    0    0
H 1145.25109040 30.78056591 -31.75838522     6    183    0    0    0
C 1144.66578014 32.62070330 -35.25460064     2    183   187   188   189
H 1143.88966781 31.10154878 -36.32075847     6    186    0    0    0
H 1143.68903719 34.28999663 -35.95883099     6    186    0    0    0
C 1147.39108305 33.11731664 -35.93694390     2    186   190   191   192
H 1148.31516102 34.57449573 -34.72527750     6    189    0    0    0
H 1148.50915228 31.49612645 -35.36613305     6    189    0    0    0
C 1148.11400932 33.59740924 -38.54887082     2    189   193   194   195
H 1147.33260619 32.07234897 -39.75857531     6    192    0    0    0
H 1147.39994178 35.39943337 -38.93984521     6    192    0    0    0
C 1150.96471972 33.38774640 -39.00831727     2    192   196   197   198
H 1151.75279190 34.97560205 -37.98904008     6    195    0    0    0
H 1151.98998626 31.78879212 -38.17058659     6    195    0    0    0
C 1151.80413566 33.62168154 -41.68754557     1    195   199   200   201
H 1153.80800029 33.73059190 -41.73863938     6    198    0    0    0
H 1151.52182999 35.58725488 -42.60314148     6    198    0    0    0
H 1150.91036043 32.29368218 -43.12073298     6    198    0    0    0
H 1131.01431072 27.92353806 -35.64403056     6     203    0    0    0
C 1132.68738518 28.20464049 -34.52800483     1     202    204    205    206
H 1134.30679939 28.15658304 -35.82157208     6     203    0    0    0
H 1132.73714877 29.86731935 -33.31776321     6     203    0    0    0
C 1132.69955321 25.89359017 -32.91239305     2     203    207    208    209
H 1134.73077778 25.75452174 -32.31320657     6     206    0    0    0
H 1131.69892405 26.01631960 -31.08245023     6     206    0    0    0
C 1132.04232909 23.29389234 -34.45721442     2     206    210   211   212
H 1131.26354147 21.75223333 -33.22263371     6     209    0    0    0
H 1130.36257628 23.49873336 -35.60177535     6     209    0    0    0
C 1134.29391297 22.31389445 -36.02931449     2     209   213   214   215
H 1134.58506016 23.72718048 -37.68816384     6    212    0    0    0
H 1136.16797188 22.15668876 -35.15499026     6    212    0    0    0
C 1133.47168782 19.86774288 -37.38957027     2    212   216   217   218
H 1133.13101917 18.51208804 -35.93385441     6    215    0    0    0
H 1131.63642965 20.12935927 -38.27556777     6    215    0    0    0
C 1135.44222098 18.95813458 -39.34841478     2    215   219   220   221
H 1135.70527729 20.52237545 -40.63305543     6    218    0    0    0
H 1137.26315600 18.50836690 -38.66971962     6    218    0    0    0
C 1134.33892658 16.58677146 -40.84662102     2    218   222   223   224
H 1133.93519491 14.80964331 -39.78803772     6    221    0    0    0
H 1132.54091486 17.11539314 -41.79272561     6    221    0    0    0
C 1136.17198179 15.58773828 -42.84024413     2    221   225   226   227
H 1137.06084109 17.35385825 -43.63791458     6    224    0    0    0
H 1137.48510078 14.04970447 -42.12402881     6    224    0    0    0
C 1134.69064775 14.54778754 -45.21658986     2    224   228   229   230
H 1133.29315695 13.18481367 -44.63788642     6    227    0    0    0
H 1133.77895780 16.05321255 -46.16667138     6    227    0    0    0
C 1136.76956189 13.40221085 -47.08235227     2    227   231   232   233
H 1138.31530993 14.69086886 -47.54986992     6    230    0    0    0
H 1137.62246469 11.89538991 -45.92513964     6    230    0    0    0
C 1135.55126606 11.87881206 -49.22855824     2    230   234   235   236
H 1134.96845993 10.17633116 -48.18566089     6    233    0    0    0
H 1134.09700785 13.04253250 -50.13662220     6    233    0    0    0
C 1137.61485277 11.12535825 -51.15639678     1    233   237   238   239
H 1139.19147282 9.88936989 -50.28087457     6    236    0    0    0
H 1138.76795681 12.79020920 -51.60281806     6    236    0    0    0
H 1136.88303337 10.35941667 -52.93900224     6    236    0    0    0
H 1109.37267910 26.77293335 -34.98227110     6     241    0    0    0
C 1109.28145669 28.34653852 -36.28271847     1     240    242    243    244
H 1111.00010219 29.18132870 -36.79735234     6     241    0    0    0
H 1108.49307438 27.54464503 -38.03936055     6     241    0    0    0
C 1107.34163624 30.10260210 -35.00693367     2     241    245    246    247
H 1108.46294143 31.27428999 -33.81050685     6     244    0    0    0
H 1106.49945116 31.31062936 -36.39056584     6     244    0    0    0
C 1105.36497614 28.53413738 -33.59910159     2     244    248   249   250
H 1104.44243335 27.45482762 -35.07759123     6     247    0    0    0
H 1106.28086501 27.25534488 -32.18988311     6     247    0    0    0
C 1103.30078420 30.00945801 -32.39637037     2     247   251   252   253
H 1104.14987895 31.30994369 -31.11837965     6    250    0    0    0
H 1102.03009950 31.13593544 -33.64372189     6    250    0    0    0
C 1101.48810496 28.49521440 -30.71587924     2    250   254   255   256
H 1102.67112896 27.49232263 -29.39003480     6    253    0    0    0
H 1100.63237893 29.81545767 -29.26555856     6    253    0    0    0
C 1099.36869205 27.01068807 -32.01128773     2    253   257   258   259
H 1098.31791231 26.22479717 -30.33449026     6    256    0    0    0
H 1098.14894598 28.29780030 -32.92866065     6    256    0    0    0
C 1100.31932688 24.86950862 -33.71202698     2    256   260   261   262
H 1100.68366794 25.95932902 -35.47024006     6    259    0    0    0
H 1102.09875706 24.00658773 -32.99437384     6    259    0    0    0
C 1098.10449934 22.94370294 -34.21232115     2    259   263   264   265
H 1097.68303707 21.91061475 -32.38463562     6    262    0    0    0
H 1096.39439590 24.05909581 -34.68651457     6    262    0    0    0
C 1098.87012259 20.85157850 -36.20095276     2    262   266   267   268
H 1099.24086647 21.89803384 -37.95867320     6    265    0    0    0
H 1100.66057602 19.98479273 -35.58333919     6    265    0    0    0
C 1096.78125984 19.12428561 -36.88130520     2    265   269   270   271
H 1096.31395731 18.02737276 -35.18331857     6    268    0    0    0
H 1094.92222514 20.06084462 -37.31494494     6    268    0    0    0
C 1097.48003004 17.44624862 -39.03757532     2    268   272   273   274
H 1097.51320955 18.37263462 -40.88800198     6    271    0    0    0
H 1099.36550220 16.68238475 -38.63477337     6    271    0    0    0
C 1095.91917122 15.13840021 -39.39307594     1    271   275   276   277
H 1096.08204276 13.72067781 -37.97988300     6    274    0    0    0
H 1096.45704918 14.21318151 -41.08155902     6    274    0    0    0
H 1093.98889913 15.64651765 -39.68695738     6    274    0    0    0
H 1130.69850286 43.97245156 -29.28233977     6     279    0    0    0
C 1129.00376661 42.82619236 -28.83680306     1     278    280    281    282
H 1129.10222929 42.75233872 -26.78152305     6     279    0    0    0
H 1127.21742517 43.87416859 -29.11328088     6     279    0    0    0
C 1129.13932468 40.43865390 -30.37252260     2     279    283    284    285
H 1129.46893287 40.91407782 -32.41909392     6     282    0    0    0
H 1130.66599600 39.44474287 -29.44625169     6     282    0    0    0
C 1126.76576490 38.74202890 -30.19608683     2     282    286   287   288
H 1127.20558516 37.95172098 -28.39372481     6     285    0    0    0
H 1125.05379904 39.79323349 -29.93697403     6     285    0    0    0
C 1126.75823673 36.74130492 -32.25616074     2     285   289   290   291
H 1126.20433992 37.56569133 -34.05181418     6    288    0    0    0
H 1128.64928977 36.09799327 -32.63809051     6    288    0    0    0
C 1124.90819320 34.53334600 -31.74181213     2    288   292   293   294
H 1125.21619045 33.97739120 -29.79672998     6    291    0    0    0
H 1122.89730412 35.06042844 -31.63905167     6    291    0    0    0
C 1125.18260258 32.14369003 -33.34064046     2    291   295   296   297
H 1124.59827990 32.50043360 -35.30034543     6    294    0    0    0
H 1127.10899988 31.61172604 -33.38101342     6    294    0    0    0
C 1123.31000111 30.14792133 -32.43517599     2    294   298   299   300

   17   -1830.5196066034      2.39E-09 Convergence criterion met
 Total energy in the final basis set = -1828.22974317
 Total job time:  17.06s(wall), 30.08s(cpu)
        *  Thank you very much for using Q-Chem.  Have a nice day.  *

User input: 2 of 2

                  Welcome to Q-Chem
     A Quantum Leap Into The Future Of Chemistry

 Q-Chem 5.4 (devel), Q-Chem, Inc., Pleasanton, CA (2021)

 E. Epifanovsky,  A. T. B. Gilbert,  Xintian Feng,  Joonho Lee,  Yuezhi Mao,
 N. Mardirossian,  P. Pokhilko,  A. White,  M. Wormit,  M. P. Coons,
 A. L. Dempwolff,  Zhengting Gan,  D. Hait,  P. R. Horn,  L. D. Jacobson,
 I. Kaliman,  J. Kussmann,  A. W. Lange,  Ka Un Lao,  D. S. Levine,  Jie Liu,
 S. C. McKenzie,  A. F. Morrison,  K. Nanda,  F. Plasser,  D. R. Rehn,
 M. L. Vidal,  Zhi-Qiang You,  Ying Zhu,  B. Alam,  B. Albrecht,
 A. Aldossary,  E. Alguire,  J. H. Andersen,  D. Barton,  K. Begam,  A. Behn,
 Y. A. Bernard,  E. J. Berquist,  H. Burton,  A. Carreras,  K. Carter-Fenk,
 R. Chakraborty,  A. D. Chien,  K. D. Closser,  V. Cofer-Shabica,
 S. Dasgupta,  Jia Deng,  M. de Wergifosse,  M. Diedenhofen,  Hainam Do,
 S. Ehlert,  Po-Tung Fang,  S. Fatehi,  Qingguo Feng,  T. Friedhoff,
 J. Gayvert,  Qinghui Ge,  G. Gidofalvi,  M. Goldey,  J. Gomes,
 C. Gonzalez-Espinoza,  S. Gulania,  A. Gunina,  M. W. D. Hanson-Heine,
 P. H. P. Harbach,  A. W. Hauser,  M. F. Herbst,  M. Hernandez Vera,
 M. Hodecker,  Z. C. Holden,  S. Houck,  Xunkun Huang,  Kerwin Hui,
 B. C. Huynh,  M. Ivanov,  Hyunjun Ji,  Hanjie Jiang,  B. Kaduk,  S. Kaehler,
 K. Khistyaev,  Jaehoon Kim,  P. Klunzinger,  Z. Koczor-Benda,
 Joong Hoon Koh,  D. Kosenkov,  L. Koulias,  T. Kowalczyk,  C. M. Krauter,
 K. Kue,  A. Kunitsa,  T. Kus,  A. Landau,  K. V. Lawler,  D. Lefrancois,
 S. Lehtola,  Rain Li,  Yi-Pei Li,  Jiashu Liang,  M. Liebenthal,
 Hung-Hsuan Lin,  You-Sheng Lin,  Fenglai Liu,  Kuan-Yu Liu,
 M. Loipersberger,  A. Luenser,  A. Manjanath,  P. Manohar,  E. Mansoor,
 S. F. Manzer,  Shan-Ping Mao,  A. V. Marenich,  T. Markovich,  S. Mason,
 S. A. Maurer,  P. F. McLaughlin,  M. F. S. J. Menger,  J.-M. Mewes,
 S. A. Mewes,  P. Morgante,  J. W. Mullinax,  K. J. Oosterbaan,  G. Paran,
 Alexander C. Paul,  Suranjan K. Paul,  F. Pavosevic,  Zheng Pei,  S. Prager,
 E. I. Proynov,  E. Ramos,  B. Rana,  A. E. Rask,  A. Rettig,  R. M. Richard,
 F. Rob,  E. Rossomme,  T. Scheele,  M. Scheurer,  M. Schneider,
 N. Sergueev,  S. M. Sharada,  W. Skomorowski,  D. W. Small,  C. J. Stein,
 Yu-Chuan Su,  E. J. Sundstrom,  Zhen Tao,  J. Thirman,  T. Tsuchimochi,
 N. M. Tubman,  S. P. Veccham,  O. Vydrov,  J. Wenzel,  J. Witte,  A. Yamada,
 Kun Yao,  S. Yeganeh,  S. R. Yost,  A. Zech,  Igor Ying Zhang,  Xing Zhang,
 Yu Zhang,  D. Zuev,  A. Aspuru-Guzik,  A. T. Bell,  N. A. Besley,
 K. B. Bravaya,  B. R. Brooks,  D. Casanova,  Jeng-Da Chai,  S. Coriani,
 C. J. Cramer,  A. E. DePrince, III,  R. A. DiStasio Jr.,  A. Dreuw,
 B. D. Dunietz,  T. R. Furlani,  W. A. Goddard III,  S. Grimme,
 S. Hammes-Schiffer,  T. Head-Gordon,  W. J. Hehre,  Chao-Ping Hsu,
 T.-C. Jagau,  Yousung Jung,  A. Klamt,  Jing Kong,  D. S. Lambrecht,
 WanZhen Liang,  N. J. Mayhall,  C. W. McCurdy,  J. B. Neaton,
 C. Ochsenfeld,  J. A. Parkhill,  R. Peverati,  V. A. Rassolov,  Yihan Shao,
 L. V. Slipchenko,  T. Stauch,  R. P. Steele,  J. E. Subotnik,
 A. J. W. Thom,  A. Tkatchenko,  D. G. Truhlar,  T. Van Voorhis,
 T. A. Wesolowski,  K. B. Whaley,  H. L. Woodcock III,  P. M. Zimmerman,
 S. Faraji,  P. M. W. Gill,  M. Head-Gordon,  J. M. Herbert,  A. I. Krylov

 Additional authors for Version 5.4.1:
 S. Kotaru,  Shaozhi Li,  Xiangyuan Li,  F. Matz,  A. Molle,  Haisheng Ren,
 Yingli Su,  Hung-Yi Tsai,  C. Utku,  Fang Wang

 Contributors to earlier versions of Q-Chem not listed above:
 R. D. Adamson,  B. Austin,  R. Baer,  J. Baker,  G. J. O. Beran,
 K. Brandhorst,  S. T. Brown,  E. F. C. Byrd,  A. K. Chakraborty,
 G. K. L. Chan,  Chun-Min Chang,  Yunqing Chen,  C.-L. Cheng,
 Siu Hung Chien,  D. M. Chipman,  D. L. Crittenden,  H. Dachsel,
 R. J. Doerksen,  A. D. Dutoi,  R. G. Edgar,  J. Fosso-Tande,
 L. Fusti-Molnar,  D. Ghosh,  A. Ghysels,  A. Golubeva-Zadorozhnaya,
 J. Gonthier,  M. S. Gordon,  S. R. Gwaltney,  G. Hawkins,  J. E. Herr,
 A. Heyden,  S. Hirata,  E. G. Hohenstein,  G. Kedziora,  F. J. Keil,
 C. Kelley,  Jihan Kim,  R. A. King,  R. Z. Khaliullin,  P. P. Korambath,
 W. Kurlancheek,  A. Laurent,  A. M. Lee,  M. S. Lee,  S. V. Levchenko,
 Ching Yeh Lin,  D. Liotard,  E. Livshits,  R. C. Lochan,  I. Lotan,
 L. A. Martinez-Martinez,  P. E. Maslen,  N. Nair,  D. P. O'Neill,
 D. Neuhauser,  E. Neuscamman,  C. M. Oana,  R. Olivares-Amaya,  R. Olson,
 T. M. Perrine,  B. Peters,  P. A. Pieniazek,  A. Prociuk,  Y. M. Rhee,
 J. Ritchie,  M. A. Rohrdanz,  E. Rosta,  N. J. Russ,  H. F. Schaefer III,
 M. W. Schmidt,  N. E. Schultz,  S. Sharma,  N. Shenvi,  C. D. Sherrill,
 A. C. Simmonett,  A. Sodt,  T. Stein,  D. Stuck,  K. S. Thanthiriwatte,
 V. Vanovschi,  L. Vogt,  Tao Wang,  A. Warshel,  M. A. Watson,
 C. F. Williams,  Q. Wu,  X. Xu,  Jun Yang,  W. Zhang,  Yan Zhao

 Please cite Q-Chem as follows:
 Y. Shao et al., Mol. Phys. 113, 184-215 (2015)
 DOI: 10.1080/00268976.2014.952696

 Q-Chem 5.4.1 for Intel X86 EM64T Linux

 Parts of Q-Chem use Armadillo 9.900.5 (Nocturnal Misbehaviour).
 http://arma.sourceforge.net/

 Q-Chem begins on Fri Jul  1 20:00:20 2022

 Host: p09r14n09.grace.hpc.yale.internal
0

     Scratch files written to /home/tl686/scratch60/qchem_dev/scratch/qchem8646//
 Processing $rem in /home/tl686/qchem_dev/qchem/config/preferences:
 Processing $rem in /home/tl686/.qchemrc:
Applying user defined connections for MM calculations
The previous job contains 0 fragments, simply inherited here

 Checking the input file for inconsistencies... 	...done.

--------------------------------------------------------------
User input:
--------------------------------------------------------------

$molecule
READ
$end

$qm_atoms
1:11
$end

$force_field_params
NumAtomTypes 3
AtomType -1   0.0238     3.11   0.2868
AtomType -2   0.07124    3.30   0.6597
AtomType -3  -0.0760     3.09   0.1434
$end

$rem
     JOBTYPE  freq
     METHOD   bp86
     BASIS    def2-msvp
     MAX_SCF_CYCLES   800
     INPUT_BOHR TRUE
     SYM_IGNORE TRUE
     SCF_GUESS     read
     user_connect            true
     qm_mm_interface         ONIOM
     force_field             oplsaa
$end

--------------------------------------------------------------

    2   -1830.5196066036      8.98E-09 Convergence criterion met
 Total energy in the final basis set = -1828.22974317

                    Orbital Energies (a.u.)
 --------------------------------------------------------------

 Alpha MOs
 -- Occupied --
******** -29.6388 -25.5982 -25.5860 -25.5821 -18.8911 -18.8856 -18.8803
-18.8739 -18.8712 -10.0654 -10.0548 -10.0487 -10.0415 -10.0393  -3.3249
 -2.1600  -2.1372  -2.1284  -1.0575  -1.0509  -1.0501  -1.0476  -1.0403
 -0.5793  -0.5305  -0.5211  -0.5166  -0.5150  -0.4577  -0.4448  -0.4405
 -0.4344  -0.4311  -0.4298  -0.4274  -0.4198  -0.4153  -0.4066  -0.4058
 -0.4050  -0.3990  -0.3954  -0.3805  -0.2831  -0.2765  -0.2373  -0.2270

          Ground-State Mulliken Net Atomic Charges

     Atom                 Charge (a.u.)
  ----------------------------------------
      1 Fe                   -0.519905
      2 C                     0.242854
      3 C                     0.212811
      4 C                     0.224234
      5 C                     0.236499
      6 C                     0.198869
      7 O                    -0.125593
      8 O                    -0.114565
      9 O                    -0.123685
     10 O                    -0.118760
     11 O                    -0.112759
  ----------------------------------------
  Sum of atomic charges =     0.000000

                    Cartesian Multipole Moments
 -----------------------------------------------------------------
    Charge (ESU x 10^10)
                -0.0000
    Dipole Moment (Debye)
         X       0.1887933782      Y       0.2375831801      Z      -0.3881240950
       Tot       0.4926753700
    Quadrupole Moments (Debye-Ang)
        XX     153.3173     XY     145.6309     YY     -59.3563
        XZ    -235.0791     YZ     -16.3257     ZZ     -43.9086
