 Q-Chem 5.4 (devel), Q-Chem, Inc., Pleasanton, CA (2021)
 Q-Chem 5.4.1 for Intel X86 EM64T Linux

User input:
--------------------------------------------------------------
$molecule
0   1
 Fe -1430.12003128 15.95583084 38.69956606    -1  0   0   0   0
C -1429.44775088 18.92495128 37.26895853    -2  0   0   0   0
C -1429.66871953 16.14727569 42.10546446    -2  0   0   0   0
C -1433.52589577 16.12959812 39.05844349    -2  0   0   0   0
C -1430.65360281 13.82630722 36.08996286    -2  0   0   0   0
C -1426.76749314 14.98467794 38.27005718    -2  0   0   0   0
O -1429.08536444 20.98433806 36.66073368    -3  0   0   0   0
O -1429.25878126 16.29254291 44.28183491    -3  0   0   0   0
O -1435.76394753 15.83008175 39.05890106    -3  0   0   0   0
O -1430.98971703 12.83791541 34.14888334    -3  0   0   0   0
O -1424.84161703 14.18981306 37.75521260    -3  0   0   0   0
H -1446.98623392 42.04338959 24.05995611      6     13    0    0    0
C -1445.28707333 42.31969375 22.96561775     1     12    14    15    16
H -1445.76574577 44.05916059 22.05039015     6     13    0    0    0
H -1443.65718895 42.77347495 24.15466404     6     13    0    0    0
C -1444.64187664 40.20119778 21.04920668     2     13    17    18    19
H -1446.24160902 39.79669348 19.74320749     6     16    0    0    0
H -1443.17892700 40.75883783 19.73851607     6     16    0    0    0
C -1443.94870660 37.67503215 22.27542472     2     16    20   21   22
H -1442.12284129 37.84032499 23.35501709     6     19    0    0    0
H -1445.44867146 37.16791758 23.54007281     6     19    0    0    0
C -1443.83021132 35.43333840 20.26749754     2     19   23   24   25
H -1445.68619944 35.09489591 19.35329794     6    22    0    0    0
H -1442.60732476 36.00680567 18.60959813     6    22    0    0    0
C -1442.99750402 32.81946712 21.28576425     2    22   26   27   28
H -1441.07176144 32.91192456 21.86208843     6    25    0    0    0
H -1444.08525177 32.44477390 22.99608422     6    25    0    0    0
C -1443.50813844 31.08148469 19.23011728     2    25   29   30   31
H -1445.55160440 30.87771387 19.12150641     6    28    0    0    0
H -1442.73969725 31.87043956 17.54148633     6    28    0    0    0
C -1442.41866042 28.34773114 19.52387194     2    28   32   33   34
H -1440.48356369 28.70410429 19.41435179     6    31    0    0    0
H -1443.00351769 27.57455740 21.40176283     6    31    0    0    0
C -1443.11859580 26.58671132 17.32602181     2    31   35   36   37
H -1445.06568534 25.92686187 17.52523147     6    34    0    0    0
H -1442.83413061 27.27978048 15.36110871     6    34    0    0    0
C -1441.47110199 24.24183858 17.33290855     2    34   38   39   40
H -1439.56733302 24.70793931 17.85987914     6    37    0    0    0
H -1442.26833410 22.99618981 18.88650852     6    37    0    0    0
C -1441.37434531 22.64186814 14.93842805     2    37   41   42   43
H -1443.28671502 22.62898058 14.26966049     6    40    0    0    0
H -1440.08838610 23.52752759 13.51475739     6    40    0    0    0
C -1440.43162172 19.92658780 15.49803830     2    40   44   45   46
H -1438.98023056 19.95479356 16.88373370     6    43    0    0    0
H -1442.05799264 18.96309013 16.25105244     6    43    0    0    0
C -1439.70933936 18.55019559 13.16253712     1    43   47   48   49
H -1441.21813519 18.25589066 11.86398619     6    46    0    0    0
H -1439.01114846 16.72845357 13.54835574     6    46    0    0    0
H -1438.17124661 19.43293362 12.15230428     6    46    0    0    0
H -1427.05860166 13.71196157 24.58072687     6     51    0    0    0
C -1427.97105160 13.44992379 26.40952355     1     50    52    53    54
H -1428.64193656 11.53820615 26.80298610     6     51    0    0    0
H -1426.50078091 13.60294806 27.89980841     6     51    0    0    0
C -1430.21545791 15.35286221 26.58085388     2     51    55    56    57
H -1430.55777948 15.72263771 28.52604327     6     54    0    0    0
H -1429.64687390 17.07981090 25.87833512     6     54    0    0    0
C -1432.72611715 14.62744032 25.51008746     2     54    58   59   60
H -1433.29369804 12.87183634 26.46402107     6     57    0    0    0
H -1434.09668349 16.06583893 26.13411601     6     57    0    0    0
C -1432.63397294 14.26959309 22.57527976     2     57   61   62   63
H -1432.05396576 16.10404773 21.90782352     6    60    0    0    0
H -1431.22516045 12.81379756 22.04478653     6    60    0    0    0
C -1435.20355585 14.00164581 21.29012582     2    60   64   65   66
H -1435.84918129 11.97282861 21.67095118     6    63    0    0    0
H -1436.71777895 15.23624630 21.95030084     6    63    0    0    0
C -1435.03653300 14.14865929 18.34120373     2    63   67   68   69
H -1436.80845337 13.20042200 17.64415995     6    66    0    0    0
H -1435.18090163 16.11158360 17.82792175     6    66    0    0    0
C -1432.53877977 13.17703657 17.25065922     2    66   70   71   72
H -1430.95667770 14.20618182 18.09012384     6    69    0    0    0
H -1432.27534755 11.18558127 17.77035864     6    69    0    0    0
C -1432.37604344 13.07112830 14.35542364     2    69   73   74   75
H -1434.01011669 12.30710060 13.38888341     6    72    0    0    0
H -1432.22375877 15.04964416 13.64011732     6    72    0    0    0
C -1429.81288181 11.77036781 13.58585731     2    72   76   77   78
H -1428.36193280 12.76056739 14.55024572     6    75    0    0    0
H -1430.03169389 9.77583322 14.22675082     6    75    0    0    0
C -1429.78772688 11.91782684 10.68075497     2    75   79   80   81
H -1431.11532202 10.75407032 9.82914600     6    78    0    0    0
H -1430.23701732 13.94454419 10.13547810     6    78    0    0    0
C -1427.19105915 11.21166757 9.49860457     2    78   82   83   84
H -1425.65152951 12.47063310 10.09826793     6    81    0    0    0
H -1426.62353748 9.35626495 10.11960533     6    81    0    0    0
C -1427.43376675 11.22646622 6.59871846     1    81   85   86   87
H -1425.60229123 10.96575256 5.83163481     6    84    0    0    0
H -1427.72775289 13.20415419 5.82323504     6    84    0    0    0
H -1428.90623595 9.86899615 5.74276576     6    84    0    0    0
H -1456.73285491 28.33054708 31.70985497     6     89    0    0    0
C -1456.94494038 27.04152226 30.22018244     1     88    90    91    92
H -1456.40303755 25.34999442 31.26614781     6     89    0    0    0
H -1458.97233739 26.75085720 29.90971547     6     89    0    0    0
C -1455.41385034 27.59382541 27.76090879     2     89    93    94    95
H -1455.99358330 29.50732021 27.00916617     6     92    0    0    0
H -1453.39110413 27.63997033 28.28362080     6     92    0    0    0
C -1456.07124603 25.58398802 25.83894657     2     92    96   97   98
H -1455.41155130 23.65975245 26.29639447     6     95    0    0    0
H -1458.10056838 25.30589270 25.61063819     6     95    0    0    0
C -1455.36057329 26.37250511 23.07186456     2     95   99   100   101
H -1456.15270543 28.18824522 22.50885217     6    98    0    0    0
H -1453.26690645 26.39196115 23.03662439     6    98    0    0    0
C -1456.39542477 24.48146398 21.20470764     2    98   102   103   104
H -1455.95074373 22.66830121 21.70215611     6    101    0    0    0
H -1458.46918803 24.91824894 21.05926972     6    101    0    0    0
C -1455.27482860 24.66501084 18.59081507     2    101   105   106   107
H -1455.61593955 26.49351525 17.80848893     6    104    0    0    0
H -1453.26908526 24.44923797 18.57010883     6    104    0    0    0
C -1456.24807039 22.61014588 16.91094794     2    104   108   109   110
H -1455.87057738 20.73801238 17.73877616     6    107    0    0    0
H -1458.30607412 22.90009398 17.01492555     6    107    0    0    0
C -1455.28194242 22.55810996 13.99564555     2    107   111   112   113
H -1455.96425502 24.10537462 12.90193947     6    110    0    0    0
H -1453.19663515 22.70160876 14.03907286     6    110    0    0    0
C -1455.74677944 19.96383809 12.74288397     2    110   114   115   116
H -1454.89260867 18.34493075 13.79660626     6    113    0    0    0
H -1457.79787645 19.64319981 12.46909353     6    113    0    0    0
C -1454.67717619 19.81840470 10.05102577     2    113   117   118   119
H -1455.16014963 21.60003737 8.98206853     6    116    0    0    0
H -1452.60694184 19.98203312 10.25494373     6    116    0    0    0
C -1455.31390189 17.35380686 8.69237476     2    116   120   121   122
H -1454.42984927 17.12922383 6.92665334     6    119    0    0    0
H -1454.63719918 15.81811444 9.94096326     6    119    0    0    0
C -1458.19719166 16.89491333 8.26337353     1    119   123   124   125
H -1458.59146073 15.01392615 7.55285772     6    122    0    0    0
H -1458.89963215 18.22893522 6.95083152     6    122    0    0    0
H -1459.21954667 17.04562937 10.11033015     6    122    0    0    0
H -1462.02437015 16.53161956 55.97142074     6     127    0    0    0
C -1460.21186930 15.58070468 55.60536611     1     126    128    129    130
H -1459.09782611 15.77562987 57.34659797     6     127    0    0    0
H -1460.62820778 13.58573401 55.35153195     6     127    0    0    0
C -1458.80605580 16.51966409 53.21586673     2     127    131    132    133
H -1459.87596548 16.39190359 51.40427731     6     130    0    0    0
H -1458.25910822 18.49166767 53.30649579     6     130    0    0    0
C -1456.57350087 14.61665225 52.86165165     2     130    134   135   136
H -1455.22305192 14.52169987 54.52885316     6     133    0    0    0
H -1457.50462665 12.78724563 52.61501696     6     133    0    0    0
C -1454.88691002 15.32403018 50.56929227     2     133   137   138   139
H -1455.78875737 14.56614799 49.02115208     6    136    0    0    0
H -1454.82124678 17.35607285 50.39938986     6    136    0    0    0
C -1452.20364660 14.25754828 50.88667900     2    136   140   141   142
H -1451.45256931 15.05379802 52.83764829     6    139    0    0    0
H -1452.25667055 12.20810959 51.02291677     6    139    0    0    0
C -1450.41300356 15.13979135 48.73449011     2    139   143   144   145
H -1450.80693630 14.34310382 46.91383898     6    142    0    0    0
H -1450.69450937 17.19826908 48.68308021     6    142    0    0    0
C -1447.73741895 14.36850957 49.49671804     2    142   146   147   148
H -1447.30464837 15.05813125 51.35656309     6    145    0    0    0
H -1447.52031300 12.34377517 49.43425463     6    145    0    0    0
C -1445.61542344 15.24101272 47.78388984     2    145   149   150   151
H -1445.99631211 14.57404453 45.85308696     6    148    0    0    0
H -1445.67005724 17.33217335 47.62251664     6    148    0    0    0
C -1442.93195537 14.43617349 48.47458068     2    148   152   153   154
H -1442.11368556 15.12757707 50.19957461     6    151    0    0    0
H -1442.88382809 12.42744019 48.77274264     6    151    0    0    0
C -1441.17252994 14.88833320 46.29671389     2    151   155   156   157
H -1439.31290693 13.98713575 46.70864124     6    154    0    0    0
H -1441.65726571 14.01872423 44.56044943     6    154    0    0    0
C -1440.77602521 17.78965978 45.98123759     2    154   158   159   160
H -1442.62756052 18.62131446 45.61706591     6    157    0    0    0
H -1440.30957077 18.51570644 47.78235942     6    157    0    0    0
C -1439.08526198 18.65207738 43.93046607     1    157   161   162   163
H -1439.06059133 20.71897341 43.86412908     6    160    0    0    0
H -1439.83048487 17.99202053 42.17532646     6    160    0    0    0
H -1437.28122096 18.00926707 44.05459089     6    160    0    0    0
H -1465.23369368 -3.91212057 33.73240099     6     165    0    0    0
C -1464.22596099 -3.82773998 35.54836824     1     164    166    167    168
H -1463.39566868 -1.96087232 35.75302759     6     165    0    0    0
H -1465.64763400 -4.08706138 36.95394166     6     165    0    0    0
C -1462.31976252 -5.88968099 35.97626442     2     165    169    170    171
H -1463.35100411 -7.70428153 35.91635860     6     168    0    0    0
H -1461.13033783 -5.94702489 34.36316114     6     168    0    0    0
C -1460.90233292 -5.41682154 38.47244340     2     168    172   173   174
H -1460.02076689 -3.65034231 38.68571828     6     171    0    0    0
H -1462.16123432 -5.52854233 40.11857547     6     171    0    0    0
C -1458.92751346 -7.29822398 38.98210328     2     171   175   176   177
H -1459.75012903 -9.22818285 39.02762279     6    174    0    0    0
H -1457.39799198 -7.11918578 37.39650087     6    174    0    0    0
C -1457.87789162 -6.87676997 41.65382871     2    174   178   179   180
H -1457.25912742 -4.82880714 41.86783186     6    177    0    0    0
H -1459.39280287 -7.00454973 42.97843891     6    177    0    0    0
C -1455.84622702 -8.83420755 42.51982606     2    177   181   182   183
H -1456.63549836 -10.71456032 42.61001176     6    180    0    0    0
H -1454.39222549 -9.16211126 41.08111437     6    180    0    0    0
C -1454.42294973 -8.09770456 44.90092886     2    180   184   185   186
H -1453.24474376 -6.51681632 44.49862646     6    183    0    0    0
H -1455.88016802 -7.59349836 46.34192311     6    183    0    0    0
C -1452.77728525 -10.23837213 45.95940732     2    183   187   188   189
H -1454.03906181 -11.88278589 46.15601666     6    186    0    0    0
H -1451.36938364 -11.13160005 44.78497710     6    186    0    0    0
C -1451.65134591 -9.63220197 48.61618755     2    186   190   191   192
H -1450.34888671 -8.04652411 48.61569499     6    189    0    0    0
H -1453.15624799 -9.13011132 49.92642989     6    189    0    0    0
C -1450.13361887 -11.86457160 49.84763411     2    189   193   194   195
H -1451.24589423 -13.49394394 50.43598638     6    192    0    0    0
H -1448.53221620 -12.60892533 48.70266557     6    192    0    0    0
C -1448.82202431 -10.93574216 52.26819335     2    192   196   197   198
H -1447.22374869 -9.69864119 51.72214087     6    195    0    0    0
H -1450.19173962 -9.85922001 53.37514817     6    195    0    0    0
C -1447.78898063 -13.20955898 53.77090931     1    195   199   200   201
H -1447.50490925 -12.68799239 55.68271730     6    198    0    0    0
H -1446.01221906 -14.06206166 53.25141827     6    198    0    0    0
H -1449.00769611 -14.81872331 53.90298157     6    198    0    0    0
H -1448.79776896 0.72343578 26.83622571     6     203    0    0    0
C -1449.44403073 -0.69070718 28.24958839     1     202    204    205    206
H -1447.93623165 -1.81199022 29.12531520     6     203    0    0    0
H -1450.50774531 0.23155988 29.77672290     6     203    0    0    0
C -1450.85860421 -2.56172140 26.60872502     2     203    207    208    209
H -1451.55762055 -4.19171749 27.67897567     6     206    0    0    0
H -1452.32881320 -1.71929532 25.62155916     6     206    0    0    0
C -1449.05499025 -3.71858305 24.72417099     2     206    210   211   212
H -1450.10024447 -4.11982596 23.01892195     6     209    0    0    0
H -1447.63825245 -2.34856376 24.24572547     6     209    0    0    0
C -1447.68992700 -6.09576470 25.71452369     2     209   213   214   215
H -1446.91761155 -5.88496934 27.49204268     6    212    0    0    0
H -1449.23724380 -7.46423274 26.09796658     6    212    0    0    0
C -1445.64323757 -7.19957321 24.10965409     2    212   216   217   218
H -1446.53661087 -7.37800016 22.30054025     6    215    0    0    0
H -1444.22089669 -5.57584261 24.13082534     6    215    0    0    0
C -1444.36956129 -9.49505677 25.16456321     2    215   219   220   221
H -1443.18117455 -8.97771933 26.72714348     6    218    0    0    0
H -1445.75101883 -10.73676113 26.07516942     6    218    0    0    0
C -1442.96673787 -10.93590615 23.22994906     2    218   222   223   224
H -1444.24269870 -12.18767269 22.19319093     6    221    0    0    0
H -1442.15656924 -9.62494537 21.77696214     6    221    0    0    0
C -1440.82867016 -12.40825096 24.38837510     2    221   225   226   227
H -1439.67535401 -11.46608874 25.71385130     6    224    0    0    0
H -1441.59411548 -13.82536442 25.79447713     6    224    0    0    0
C -1439.36561712 -13.80868018 22.42353628     2    224   228   229   230
H -1440.42210256 -15.47569404 21.69736304     6    227    0    0    0
H -1439.52739515 -12.50338202 20.80120656     6    227    0    0    0
C -1436.57071237 -14.53429644 23.06562543     2    227   231   232   233
H -1435.59476912 -12.84208737 23.70136949     6    230    0    0    0
H -1436.48261563 -15.94560821 24.52338208     6    230    0    0    0
C -1435.31842414 -15.78333898 20.70231770     2    230   234   235   236
H -1436.20086111 -17.62037622 20.40671850     6    233    0    0    0
H -1435.54340765 -14.85667236 18.81481692     6    233    0    0    0
C -1432.65684514 -16.40550460 21.25019792     1    233   237   238   239
H -1431.90796987 -17.61152568 19.81549845     6    236    0    0    0
H -1432.51033812 -17.33321486 23.07629026     6    236    0    0    0
H -1431.62012955 -14.64717672 21.32175037     6    236    0    0    0
H -1435.10050234 11.39624215 8.88304817     6     241    0    0    0
C -1437.11063401 11.54138905 8.97164546     1     240    242    243    244
H -1437.90759829 9.62146148 8.77280676     6     241    0    0    0
H -1437.75275912 12.11634189 10.79763269     6     241    0    0    0
C -1438.02103707 13.19404320 6.85801540     2     241    245    246    247
H -1437.62958647 12.42907923 5.09920544     6     244    0    0    0
H -1440.06103085 13.23475109 7.13315465     6     244    0    0    0
C -1436.86094260 15.85088346 6.99063037     2     244    248   249   250
H -1438.16030646 17.41575182 6.30523396     6     247    0    0    0
H -1436.15841709 16.50031312 8.77011385     6     247    0    0    0
C -1434.52965314 15.84106659 5.20178899     2     247   251   252   253
H -1433.32621254 17.34969916 5.70912763     6    250    0    0    0
H -1433.09883806 14.32709813 5.53128301     6    250    0    0    0
C -1434.90936541 16.57589143 2.39482327     2    250   254   255   256
H -1435.96578037 15.06642582 1.43581780     6    253    0    0    0
H -1435.81705915 18.30554645 2.06343109     6    253    0    0    0
C -1432.37342125 17.16761477 1.12378623     2    253   257   258   259
H -1433.04979620 17.57326999 -0.82572944     6    256    0    0    0
H -1431.44787970 18.88254458 1.91732995     6    256    0    0    0
C -1430.41021691 15.00144099 0.89576135     2    256   260   261   262
H -1429.36453121 15.08030682 2.59684886     6    259    0    0    0
H -1431.29730606 13.16440603 0.80999395     6    259    0    0    0
C -1428.84968464 15.13931720 -1.51230512     2    259   263   264   265
H -1430.07512804 14.75140805 -3.05635194     6    262    0    0    0
H -1428.25058445 17.08631871 -1.72661729     6    262    0    0    0
C -1426.61851971 13.17515639 -1.33107635     2    262   266   267   268
H -1425.74261623 13.29482034 0.64704199     6    265    0    0    0
H -1427.48562779 11.30862467 -1.69862825     6    265    0    0    0
C -1424.51083947 13.21559309 -3.35414892     2    265   269   270   271
H -1425.19430468 13.03366646 -5.24109924     6    268    0    0    0
H -1423.81938643 15.14102730 -3.32158179     6    268    0    0    0
C -1422.40119037 11.44039473 -2.90184856     2    268   272   273   274
H -1420.90243175 12.27330919 -1.69637516     6    271    0    0    0
H -1422.91706941 9.68281713 -1.92480868     6    271    0    0    0
C -1420.94874411 10.71469853 -5.44575626     1    271   275   276   277
H -1422.28169013 10.19249820 -6.85709851     6    274    0    0    0
H -1419.40784343 9.16079377 -5.13575491     6    274    0    0    0
H -1420.00216662 12.47378890 -5.97160278     6    274    0    0    0
H -1456.54380868 2.08751928 17.49620827     6     279    0    0    0
C -1455.29314050 1.80967228 15.94396994     1     278    280    281    282
H -1455.90371114 0.27985367 14.71744950     6     279    0    0    0
H -1455.68505019 3.64511261 14.96199907     6     279    0    0    0
C -1452.66819746 1.21844645 16.92625282     2     279    283    284    285
H -1451.60943890 2.73232871 17.82993199     6     282    0    0    0
H -1453.01840560 -0.32854255 18.18595163     6     282    0    0    0
C -1451.02136137 0.20810842 14.75384922     2     282    286   287   288
H -1451.46373412 -1.62865250 14.05185961     6     285    0    0    0
H -1450.84916996 1.61799522 13.26947762     6     285    0    0    0
C -1448.30337701 -0.37787530 15.53804327     2     285   289   290   291
H -1447.27615978 1.35865886 16.02771540     6    288    0    0    0
H -1448.41137688 -1.44405182 17.33936185     6    288    0    0    0
C -1446.84018071 -1.62450756 13.40860171     2    288   292   293   294
H -1447.71801546 -3.45049180 13.02137765     6    291    0    0    0
H -1446.77285880 -0.41791765 11.67420368     6    291    0    0    0
C -1444.02199576 -1.86415626 14.33009942     2    291   295   296   297
H -1443.29709897 -0.12657986 15.30314176     6    294    0    0    0
H -1443.86081528 -3.28756678 15.83177715     6    294    0    0    0
C -1442.26607592 -2.67543282 12.21899230     2    294   298   299   300

   17   -1830.5149642597      1.63E-09 Convergence criterion met
 Total energy in the final basis set = -1828.21702295
 Total job time:  16.76s(wall), 30.34s(cpu)
        *  Thank you very much for using Q-Chem.  Have a nice day.  *

User input: 2 of 2

                  Welcome to Q-Chem
     A Quantum Leap Into The Future Of Chemistry

 Q-Chem 5.4 (devel), Q-Chem, Inc., Pleasanton, CA (2021)

 E. Epifanovsky,  A. T. B. Gilbert,  Xintian Feng,  Joonho Lee,  Yuezhi Mao,
 N. Mardirossian,  P. Pokhilko,  A. White,  M. Wormit,  M. P. Coons,
 A. L. Dempwolff,  Zhengting Gan,  D. Hait,  P. R. Horn,  L. D. Jacobson,
 I. Kaliman,  J. Kussmann,  A. W. Lange,  Ka Un Lao,  D. S. Levine,  Jie Liu,
 S. C. McKenzie,  A. F. Morrison,  K. Nanda,  F. Plasser,  D. R. Rehn,
 M. L. Vidal,  Zhi-Qiang You,  Ying Zhu,  B. Alam,  B. Albrecht,
 A. Aldossary,  E. Alguire,  J. H. Andersen,  D. Barton,  K. Begam,  A. Behn,
 Y. A. Bernard,  E. J. Berquist,  H. Burton,  A. Carreras,  K. Carter-Fenk,
 R. Chakraborty,  A. D. Chien,  K. D. Closser,  V. Cofer-Shabica,
 S. Dasgupta,  Jia Deng,  M. de Wergifosse,  M. Diedenhofen,  Hainam Do,
 S. Ehlert,  Po-Tung Fang,  S. Fatehi,  Qingguo Feng,  T. Friedhoff,
 J. Gayvert,  Qinghui Ge,  G. Gidofalvi,  M. Goldey,  J. Gomes,
 C. Gonzalez-Espinoza,  S. Gulania,  A. Gunina,  M. W. D. Hanson-Heine,
 P. H. P. Harbach,  A. W. Hauser,  M. F. Herbst,  M. Hernandez Vera,
 M. Hodecker,  Z. C. Holden,  S. Houck,  Xunkun Huang,  Kerwin Hui,
 B. C. Huynh,  M. Ivanov,  Hyunjun Ji,  Hanjie Jiang,  B. Kaduk,  S. Kaehler,
 K. Khistyaev,  Jaehoon Kim,  P. Klunzinger,  Z. Koczor-Benda,
 Joong Hoon Koh,  D. Kosenkov,  L. Koulias,  T. Kowalczyk,  C. M. Krauter,
 K. Kue,  A. Kunitsa,  T. Kus,  A. Landau,  K. V. Lawler,  D. Lefrancois,
 S. Lehtola,  Rain Li,  Yi-Pei Li,  Jiashu Liang,  M. Liebenthal,
 Hung-Hsuan Lin,  You-Sheng Lin,  Fenglai Liu,  Kuan-Yu Liu,
 M. Loipersberger,  A. Luenser,  A. Manjanath,  P. Manohar,  E. Mansoor,
 S. F. Manzer,  Shan-Ping Mao,  A. V. Marenich,  T. Markovich,  S. Mason,
 S. A. Maurer,  P. F. McLaughlin,  M. F. S. J. Menger,  J.-M. Mewes,
 S. A. Mewes,  P. Morgante,  J. W. Mullinax,  K. J. Oosterbaan,  G. Paran,
 Alexander C. Paul,  Suranjan K. Paul,  F. Pavosevic,  Zheng Pei,  S. Prager,
 E. I. Proynov,  E. Ramos,  B. Rana,  A. E. Rask,  A. Rettig,  R. M. Richard,
 F. Rob,  E. Rossomme,  T. Scheele,  M. Scheurer,  M. Schneider,
 N. Sergueev,  S. M. Sharada,  W. Skomorowski,  D. W. Small,  C. J. Stein,
 Yu-Chuan Su,  E. J. Sundstrom,  Zhen Tao,  J. Thirman,  T. Tsuchimochi,
 N. M. Tubman,  S. P. Veccham,  O. Vydrov,  J. Wenzel,  J. Witte,  A. Yamada,
 Kun Yao,  S. Yeganeh,  S. R. Yost,  A. Zech,  Igor Ying Zhang,  Xing Zhang,
 Yu Zhang,  D. Zuev,  A. Aspuru-Guzik,  A. T. Bell,  N. A. Besley,
 K. B. Bravaya,  B. R. Brooks,  D. Casanova,  Jeng-Da Chai,  S. Coriani,
 C. J. Cramer,  A. E. DePrince, III,  R. A. DiStasio Jr.,  A. Dreuw,
 B. D. Dunietz,  T. R. Furlani,  W. A. Goddard III,  S. Grimme,
 S. Hammes-Schiffer,  T. Head-Gordon,  W. J. Hehre,  Chao-Ping Hsu,
 T.-C. Jagau,  Yousung Jung,  A. Klamt,  Jing Kong,  D. S. Lambrecht,
 WanZhen Liang,  N. J. Mayhall,  C. W. McCurdy,  J. B. Neaton,
 C. Ochsenfeld,  J. A. Parkhill,  R. Peverati,  V. A. Rassolov,  Yihan Shao,
 L. V. Slipchenko,  T. Stauch,  R. P. Steele,  J. E. Subotnik,
 A. J. W. Thom,  A. Tkatchenko,  D. G. Truhlar,  T. Van Voorhis,
 T. A. Wesolowski,  K. B. Whaley,  H. L. Woodcock III,  P. M. Zimmerman,
 S. Faraji,  P. M. W. Gill,  M. Head-Gordon,  J. M. Herbert,  A. I. Krylov

 Additional authors for Version 5.4.1:
 S. Kotaru,  Shaozhi Li,  Xiangyuan Li,  F. Matz,  A. Molle,  Haisheng Ren,
 Yingli Su,  Hung-Yi Tsai,  C. Utku,  Fang Wang

 Contributors to earlier versions of Q-Chem not listed above:
 R. D. Adamson,  B. Austin,  R. Baer,  J. Baker,  G. J. O. Beran,
 K. Brandhorst,  S. T. Brown,  E. F. C. Byrd,  A. K. Chakraborty,
 G. K. L. Chan,  Chun-Min Chang,  Yunqing Chen,  C.-L. Cheng,
 Siu Hung Chien,  D. M. Chipman,  D. L. Crittenden,  H. Dachsel,
 R. J. Doerksen,  A. D. Dutoi,  R. G. Edgar,  J. Fosso-Tande,
 L. Fusti-Molnar,  D. Ghosh,  A. Ghysels,  A. Golubeva-Zadorozhnaya,
 J. Gonthier,  M. S. Gordon,  S. R. Gwaltney,  G. Hawkins,  J. E. Herr,
 A. Heyden,  S. Hirata,  E. G. Hohenstein,  G. Kedziora,  F. J. Keil,
 C. Kelley,  Jihan Kim,  R. A. King,  R. Z. Khaliullin,  P. P. Korambath,
 W. Kurlancheek,  A. Laurent,  A. M. Lee,  M. S. Lee,  S. V. Levchenko,
 Ching Yeh Lin,  D. Liotard,  E. Livshits,  R. C. Lochan,  I. Lotan,
 L. A. Martinez-Martinez,  P. E. Maslen,  N. Nair,  D. P. O'Neill,
 D. Neuhauser,  E. Neuscamman,  C. M. Oana,  R. Olivares-Amaya,  R. Olson,
 T. M. Perrine,  B. Peters,  P. A. Pieniazek,  A. Prociuk,  Y. M. Rhee,
 J. Ritchie,  M. A. Rohrdanz,  E. Rosta,  N. J. Russ,  H. F. Schaefer III,
 M. W. Schmidt,  N. E. Schultz,  S. Sharma,  N. Shenvi,  C. D. Sherrill,
 A. C. Simmonett,  A. Sodt,  T. Stein,  D. Stuck,  K. S. Thanthiriwatte,
 V. Vanovschi,  L. Vogt,  Tao Wang,  A. Warshel,  M. A. Watson,
 C. F. Williams,  Q. Wu,  X. Xu,  Jun Yang,  W. Zhang,  Yan Zhao

 Please cite Q-Chem as follows:
 Y. Shao et al., Mol. Phys. 113, 184-215 (2015)
 DOI: 10.1080/00268976.2014.952696

 Q-Chem 5.4.1 for Intel X86 EM64T Linux

 Parts of Q-Chem use Armadillo 9.900.5 (Nocturnal Misbehaviour).
 http://arma.sourceforge.net/

 Q-Chem begins on Wed Jun 22 16:41:40 2022

 Host: p09r14n13.grace.hpc.yale.internal
0

     Scratch files written to /home/tl686/scratch60/qchem_dev/scratch/qchem247317//
 Processing $rem in /home/tl686/qchem_dev/qchem/config/preferences:
 Processing $rem in /home/tl686/.qchemrc:
Applying user defined connections for MM calculations
The previous job contains 0 fragments, simply inherited here

 Checking the input file for inconsistencies... 	...done.

--------------------------------------------------------------
User input:
--------------------------------------------------------------

$molecule
READ
$end

$qm_atoms
1:11
$end

$force_field_params
NumAtomTypes 3
AtomType -1   0.0238     3.11   0.2868
AtomType -2   0.07124    3.30   0.6597
AtomType -3  -0.0760     3.09   0.1434
$end

$rem
     JOBTYPE  freq
     METHOD   bp86
     BASIS    def2-msvp
     MAX_SCF_CYCLES   800
     INPUT_BOHR TRUE
     SYM_IGNORE TRUE
     SCF_GUESS     read
     user_connect            true
     qm_mm_interface         ONIOM
     force_field             oplsaa
$end

--------------------------------------------------------------

    3   -1830.5149642596      5.97E-09 Convergence criterion met
 Total energy in the final basis set = -1828.21702295

                    Orbital Energies (a.u.)
 --------------------------------------------------------------

 Alpha MOs
 -- Occupied --
******** -29.6356 -25.5949 -25.5851 -25.5771 -18.8997 -18.8791 -18.8775
-18.8739 -18.8737 -10.0632 -10.0528 -10.0449 -10.0415 -10.0370  -3.3194
 -2.1531  -2.1362  -2.1188  -1.0873  -1.0530  -1.0495  -1.0405  -1.0348
 -0.5739  -0.5291  -0.5184  -0.5154  -0.5139  -0.4612  -0.4532  -0.4493
 -0.4347  -0.4263  -0.4254  -0.4215  -0.4211  -0.4114  -0.4097  -0.4068
 -0.4048  -0.4005  -0.3872  -0.3803  -0.2796  -0.2655  -0.2427  -0.2117

          Ground-State Mulliken Net Atomic Charges

     Atom                 Charge (a.u.)
  ----------------------------------------
      1 Fe                   -0.549493
      2 C                     0.256082
      3 C                     0.214024
      4 C                     0.212751
      5 C                     0.214338
      6 C                     0.213527
      7 O                    -0.106865
      8 O                    -0.126844
      9 O                    -0.140342
     10 O                    -0.115245
     11 O                    -0.071932
  ----------------------------------------
  Sum of atomic charges =     0.000000

                    Cartesian Multipole Moments
 -----------------------------------------------------------------
    Charge (ESU x 10^10)
                -0.0000
    Dipole Moment (Debye)
         X       0.7499238872      Y      -0.0859039654      Z      -0.1598707524
       Tot       0.7715724109
    Quadrupole Moments (Debye-Ang)
        XX   -1203.5353     XY      70.5486     YY     -70.9500
        XZ     135.8192     YZ      -3.4569     ZZ     -77.3327
