 Q-Chem 5.4 (devel), Q-Chem, Inc., Pleasanton, CA (2021)
 Q-Chem 5.4.1 for Intel X86 EM64T Linux

User input:
--------------------------------------------------------------
$molecule
0   1
 Fe 1476.14301594 -17.44743990 3.48254721    -1  0   0   0   0
C 1472.96003378 -18.53204332 3.71759117    -2  0   0   0   0
C 1475.41170175 -15.50783922 0.67708393    -2  0   0   0   0
C 1477.41893812 -19.36052954 5.96701437    -2  0   0   0   0
C 1478.52949353 -19.10404221 1.64218976    -2  0   0   0   0
C 1477.22784421 -14.48065129 4.81329264    -2  0   0   0   0
O 1470.92017947 -19.48003753 3.88882046    -3  0   0   0   0
O 1475.64169252 -14.25376525 -1.16160484    -3  0   0   0   0
O 1478.50836180 -20.92273631 7.07713356    -3  0   0   0   0
O 1479.85453635 -20.63155700 0.74637149    -3  0   0   0   0
O 1477.65650316 -12.30817998 5.19927049    -3  0   0   0   0
H 1461.75683243 -38.05213671 20.02935955      6     13    0    0    0
C 1463.35269710 -36.80962073 19.49719020     1     12    14    15    16
H 1462.91107868 -34.87936018 20.11293548     6     13    0    0    0
H 1464.71059300 -37.50423122 20.88210522     6     13    0    0    0
C 1464.23416121 -37.34848432 16.82996772     2     13    17    18    19
H 1462.85644237 -36.80287428 15.62129785     6     16    0    0    0
H 1465.76102612 -36.07018707 16.19353031     6     16    0    0    0
C 1465.19768512 -39.92905879 16.09971206     2     16    20   21   22
H 1466.81147034 -40.20735808 17.30562268     6     19    0    0    0
H 1463.97576985 -41.39872567 16.83951421     6     19    0    0    0
C 1465.91287555 -40.40205413 13.40806188     2     19   23   24   25
H 1464.36794388 -39.60353609 12.11012504     6    22    0    0    0
H 1467.50313022 -39.04672143 13.10863511     6    22    0    0    0
C 1466.70649986 -42.98007503 12.53065233     2    22   26   27   28
H 1468.50522912 -43.32997036 13.53139465     6    25    0    0    0
H 1465.29295798 -44.36354459 13.14962212     6    25    0    0    0
C 1466.93773578 -43.20380439 9.54847362     2    25   29   30   31
H 1467.27982659 -45.23218700 9.48091999     6    28    0    0    0
H 1465.02836522 -42.74201239 8.70897318     6    28    0    0    0
C 1468.98849264 -41.60372480 8.33673335     2    28   32   33   34
H 1468.74855518 -39.61596407 8.99424053     6    31    0    0    0
H 1470.75120459 -42.15847701 9.01813756     6    31    0    0    0
C 1468.93494339 -41.57480712 5.36934758     2    31   35   36   37
H 1469.38502951 -43.45273202 4.54768487     6    34    0    0    0
H 1466.99785286 -41.35585446 4.70084076     6    34    0    0    0
C 1470.49405822 -39.64076265 3.78241112     2    34   38   39   40
H 1469.77283100 -37.64044663 4.12900820     6    37    0    0    0
H 1472.44732886 -39.76576886 4.39628671     6    37    0    0    0
C 1470.15795665 -40.17559066 0.90276241     2    37   41   42   43
H 1470.44203405 -42.17907192 0.55470789     6    40    0    0    0
H 1468.26181592 -39.79787452 0.24310496     6    40    0    0    0
C 1472.04902831 -38.74627257 -0.81656956     2    40   44   45   46
H 1471.50483296 -36.73997493 -0.86330848     6    43    0    0    0
H 1474.04061709 -38.68569649 -0.34666485     6    43    0    0    0
C 1471.76427927 -39.73020328 -3.48328452     1    43   47   48   49
H 1469.70636924 -39.87619415 -4.13414716     6    46    0    0    0
H 1472.78957820 -41.45598704 -3.53796978     6    46    0    0    0
H 1472.73968535 -38.49617020 -4.90388268     6    46    0    0    0
H 1471.89530227 -23.98792184 -3.38515153     6     51    0    0    0
C 1471.83809574 -23.09182402 -1.48350817     1     50    52    53    54
H 1473.32370040 -21.73862466 -1.32311648     6     51    0    0    0
H 1470.12277601 -21.85213010 -1.39734681     6     51    0    0    0
C 1471.65954516 -24.97253319 0.86127662     2     51    55    56    57
H 1472.13331934 -23.98442687 2.48329965     6     54    0    0    0
H 1469.76069034 -25.66015256 1.18984492     6     54    0    0    0
C 1473.79509205 -26.95820839 0.65942796     2     54    58   59   60
H 1475.65703752 -25.76014623 0.70542887     6     57    0    0    0
H 1473.61119368 -28.26218960 2.22536111     6     57    0    0    0
C 1473.63766486 -28.55402329 -1.59315614     2     57   61   62   63
H 1471.66849194 -29.34522299 -1.76129587     6    60    0    0    0
H 1474.08790149 -27.36670046 -3.16991267     6    60    0    0    0
C 1475.37324416 -30.80875784 -1.64149102     2    60   64   65   66
H 1477.44195732 -30.52423803 -1.72906105     6    63    0    0    0
H 1475.00686386 -32.10503076 -0.01112505     6    63    0    0    0
C 1474.86774744 -32.54259229 -3.84366410     2    63   67   68   69
H 1476.29074665 -34.03316415 -3.71358313     6    66    0    0    0
H 1473.00824221 -33.23153192 -3.49108650     6    66    0    0    0
C 1475.33487351 -31.49732828 -6.56487326     2    66   70   71   72
H 1474.31036442 -29.79569446 -6.53231664     6    69    0    0    0
H 1477.32526834 -30.94447472 -6.81929504     6    69    0    0    0
C 1474.53049791 -33.24547747 -8.78465965     2    69   73   74   75
H 1476.07434149 -34.43160328 -9.14507682     6    72    0    0    0
H 1472.51281906 -34.00284306 -8.64435784     6    72    0    0    0
C 1474.59447950 -31.61028414 -11.20627891     2    72   76   77   78
H 1473.42727859 -29.97637205 -10.82895650     6    75    0    0    0
H 1476.56350942 -30.96167710 -11.15273814     6    75    0    0    0
C 1474.12504181 -33.07160308 -13.68399002     2    75   79   80   81
H 1475.69523163 -34.25875089 -14.23901959     6    78    0    0    0
H 1472.66159084 -34.36411991 -13.48293267     6    78    0    0    0
C 1473.18442051 -31.27356898 -15.88532127     2    78   82   83   84
H 1471.47639789 -30.37019752 -15.26376267     6    81    0    0    0
H 1474.47591854 -29.67742510 -16.17037476     6    81    0    0    0
C 1472.38553506 -32.84619340 -18.21023930     1    81   85   86   87
H 1471.62885583 -31.90197502 -20.03416635     6    84    0    0    0
H 1470.81961327 -34.04692609 -17.54898224     6    84    0    0    0
H 1473.81306248 -34.31834037 -18.61574098     6    84    0    0    0
H 1495.40930108 -47.05928269 14.79840484     6     89    0    0    0
C 1495.02321532 -47.73012336 12.81898102     1     88    90    91    92
H 1495.89603090 -46.69627937 11.39270285     6     89    0    0    0
H 1495.87020561 -49.65182713 12.80093491     6     89    0    0    0
C 1492.12038144 -47.95328822 12.27719620     2     89    93    94    95
H 1491.20595502 -48.68358213 13.95903792     6     92    0    0    0
H 1491.29344607 -46.02484251 12.13091950     6     92    0    0    0
C 1491.59047971 -49.91283080 10.18150677     2     92    96   97   98
H 1492.92138458 -49.57252661 8.60678370     6     95    0    0    0
H 1491.96470047 -51.72261138 11.00504419     6     95    0    0    0
C 1488.78225887 -49.70023853 9.47291702     2     95   99   100   101
H 1487.47988211 -49.92515173 11.11203491     6    98    0    0    0
H 1488.48251028 -47.78596301 8.80852123     6    98    0    0    0
C 1488.21768365 -51.77854222 7.29382826     2    98   102   103   104
H 1489.32270254 -51.12685598 5.57136165     6    101    0    0    0
H 1488.82187677 -53.64862123 7.70456466     6    101    0    0    0
C 1485.41779139 -52.00637024 6.58037644     2    101   105   106   107
H 1484.38959202 -53.10914806 8.12721920     6    104    0    0    0
H 1484.66139746 -50.15138326 6.42961836     6    104    0    0    0
C 1485.10966873 -53.34795099 4.02501597     2    104   108   109   110
H 1486.41240084 -52.52776457 2.65639458     6    107    0    0    0
H 1485.46232862 -55.27060380 4.42200641     6    107    0    0    0
C 1482.49283343 -53.16953247 2.99425521     2    107   111   112   113
H 1481.24129620 -53.91527423 4.37601682     6    110    0    0    0
H 1482.08522503 -51.24368102 2.54411694     6    110    0    0    0
C 1482.26182883 -54.62475882 0.61201155     2    110   114   115   116
H 1483.83344752 -54.08241599 -0.46014033     6    113    0    0    0
H 1482.62835025 -56.67715931 0.94458663     6    113    0    0    0
C 1479.71579547 -54.15344252 -0.98362906     2    113   117   118   119
H 1478.15895083 -54.94222270 0.13538023     6    116    0    0    0
H 1479.20885432 -52.14216612 -1.39664321     6    116    0    0    0
C 1479.54264750 -55.45196355 -3.55199555     2    116   120   121   122
H 1477.76582997 -54.54213532 -4.43605418     6    119    0    0    0
H 1481.20251626 -55.33333174 -4.74118496     6    119    0    0    0
C 1478.56998505 -58.08553566 -3.46815339     1    119   123   124   125
H 1478.11194799 -58.76366730 -5.30406584     6    122    0    0    0
H 1476.70961301 -58.02253217 -2.51927786     6    122    0    0    0
H 1479.69739972 -59.35246690 -2.43392653     6    122    0    0    0
H 1499.90602311 -34.48295485 17.41391195     6     127    0    0    0
C 1499.80953552 -32.54397384 16.72005605     1     126    128    129    130
H 1500.63854558 -31.35617467 18.22870739     6     127    0    0    0
H 1500.82367998 -32.11157206 15.02758184     6     127    0    0    0
C 1497.05828726 -31.78339550 16.53415056     2     127    131    132    133
H 1496.23574333 -33.19534217 15.30922096     6     130    0    0    0
H 1496.23712500 -32.09343454 18.36813466     6     130    0    0    0
C 1496.63016991 -29.05678746 15.33348911     2     130    134   135   136
H 1498.20849066 -27.74645639 15.80062253     6     133    0    0    0
H 1496.46192981 -28.93461516 13.27068494     6     133    0    0    0
C 1494.07608374 -27.94957697 16.46947811     2     133   137   138   139
H 1492.49324502 -29.10537994 16.04870891     6    136    0    0    0
H 1494.29935677 -27.51742536 18.56734869     6    136    0    0    0
C 1493.70515458 -25.24635335 15.34558441     2    136   140   141   142
H 1495.32920915 -24.14275708 15.46311894     6    139    0    0    0
H 1492.89160336 -25.40466007 13.42131023     6    139    0    0    0
C 1491.69282089 -23.92714666 16.72763433     2    139   143   144   145
H 1489.88112676 -24.67257073 16.40692965     6    142    0    0    0
H 1491.76857852 -24.14551587 18.77232146     6    142    0    0    0
C 1491.27364447 -21.09176359 16.10705591     2    142   146   147   148
H 1492.95941132 -19.98526661 16.07297696     6    145    0    0    0
H 1490.51999781 -21.01636184 14.05809799     6    145    0    0    0
C 1489.05804427 -19.95150397 17.70222290     2    145   149   150   151
H 1487.28962217 -21.02712774 17.66255808     6    148    0    0    0
H 1489.71472256 -20.08866588 19.69243301     6    148    0    0    0
C 1488.76319560 -17.12498224 17.18041525     2    148   152   153   154
H 1490.44525429 -16.32086946 16.44513977     6    151    0    0    0
H 1487.43585965 -17.28146560 15.59321677     6    151    0    0    0
C 1487.56439534 -15.60807715 19.42241597     2    151   155   156   157
H 1487.06689984 -13.71137198 18.66780469     6    154    0    0    0
H 1485.86689038 -16.75420595 19.69377058     6    154    0    0    0
C 1489.32379818 -15.36185203 21.75163262     2    154   158   159   160
H 1489.66499053 -17.18979649 22.51953959     6    157    0    0    0
H 1491.23617949 -14.66356598 21.31391572     6    157    0    0    0
C 1488.31016226 -13.87100907 23.84059440     1    157   161   162   163
H 1489.56818871 -13.79888702 25.56286270     6    160    0    0    0
H 1486.50627881 -14.74350911 24.65482280     6    160    0    0    0
H 1487.81665183 -11.93698988 23.32424854     6    160    0    0    0
H 1511.68803578 -38.98330166 -2.05487286     6     165    0    0    0
C 1511.31429342 -39.58717320 -0.05543145     1     164    166    167    168
H 1509.79764307 -40.89832917 -0.17409629     6     165    0    0    0
H 1513.07374676 -40.54103013 0.64797551     6     165    0    0    0
C 1510.51705361 -37.40703783 1.79151437     2     165    169    170    171
H 1511.77643627 -35.91999319 1.42875664     6     168    0    0    0
H 1508.56169836 -36.94662454 1.37703492     6     168    0    0    0
C 1510.68359669 -38.19527500 4.45820177     2     168    172   173   174
H 1509.85923969 -40.03751344 4.93702898     6     171    0    0    0
H 1512.64044727 -38.07882937 5.19639853     6     171    0    0    0
C 1509.13754976 -36.43435652 6.18832899     2     171   175   176   177
H 1508.93938266 -34.56338918 5.30807386     6    174    0    0    0
H 1507.20756449 -36.88582868 6.11501430     6    174    0    0    0
C 1510.22202841 -36.29828024 8.83267992     2    174   178   179   180
H 1509.89574256 -38.11436416 9.77097199     6    177    0    0    0
H 1512.25338580 -35.89372872 8.88604598     6    177    0    0    0
C 1509.45472020 -33.99022501 10.45235729     2    177   181   182   183
H 1507.48729328 -33.99244921 10.91604896     6    180    0    0    0
H 1510.31660188 -34.33352989 12.29511730     6    180    0    0    0
C 1510.11200179 -31.31540733 9.49145149     2    180   184   185   186
H 1512.11446381 -31.15185427 8.70747208     6    183    0    0    0
H 1508.71828902 -30.80429680 7.91365128     6    183    0    0    0
C 1509.81361123 -29.14421741 11.55220520     2    183   187   188   189
H 1508.24180983 -29.32315491 12.79626699     6    186    0    0    0
H 1511.45180133 -29.22414767 12.84316140     6    186    0    0    0
C 1509.77858257 -26.49017769 10.37440063     2    186   190   191   192
H 1511.42255290 -26.50679837 9.01856491     6    189    0    0    0
H 1508.11642909 -26.14484505 9.17229900     6    189    0    0    0
C 1510.31157641 -24.45139220 12.34790668     2    189   193   194   195
H 1508.83800893 -24.79216030 13.68690815     6    192    0    0    0
H 1512.17371958 -24.96043369 13.17045485     6    192    0    0    0
C 1510.47552450 -21.78306859 11.50372465     2    192   196   197   198
H 1512.01537005 -21.72487827 10.16519665     6    195    0    0    0
H 1508.84649486 -21.45597470 10.36558708     6    195    0    0    0
C 1510.41471585 -19.87423115 13.60543244     1    195   199   200   201
H 1509.88100038 -18.10673651 12.81452178     6    198    0    0    0
H 1512.25474468 -19.94023945 14.19973339     6    198    0    0    0
H 1509.05491213 -20.13656815 15.09488412     6    198    0    0    0
H 1501.08073689 -31.36057666 -8.97825878     6     203    0    0    0
C 1499.82908051 -30.27823933 -10.00170151     1     202    204    205    206
H 1498.30424639 -31.40954282 -10.67579553     6     203    0    0    0
H 1499.12998431 -29.01115235 -8.57737423     6     203    0    0    0
C 1501.21059373 -29.09249337 -12.15623102     2     203    207    208    209
H 1499.96187407 -27.48590724 -12.67672313     6     206    0    0    0
H 1502.88887125 -28.37723347 -11.24671407     6     206    0    0    0
C 1501.99240518 -31.06301258 -14.12897527     2     206    210   211   212
H 1503.47792285 -32.20760613 -13.17276475     6     209    0    0    0
H 1500.62274772 -32.44513321 -14.81639749     6     209    0    0    0
C 1503.00790265 -29.61482035 -16.33035511     2     209   213   214   215
H 1504.74217082 -28.48372874 -16.11413474     6    212    0    0    0
H 1503.76121017 -31.12794172 -17.51568413     6    212    0    0    0
C 1501.14440338 -27.78899462 -17.70856126     2    212   216   217   218
H 1499.25490717 -28.68927923 -17.92691193     6    215    0    0    0
H 1500.91929215 -26.12449736 -16.55262835     6    215    0    0    0
C 1501.99312613 -27.10164133 -20.37807206     2    215   219   220   221
H 1503.95373858 -26.74817389 -20.51220398     6    218    0    0    0
H 1501.80721660 -28.62595826 -21.66280398     6    218    0    0    0
C 1500.48780807 -24.98924592 -21.51969066     2    218   222   223   224
H 1498.79001034 -25.80477669 -22.22354237     6    221    0    0    0
H 1499.82130266 -23.70334828 -19.92951183     6    221    0    0    0
C 1502.03618783 -23.51491392 -23.54202566     2    221   225   226   227
H 1503.80920424 -22.84255374 -22.74271699     6    224    0    0    0
H 1502.53351238 -24.92649319 -25.08524820     6    224    0    0    0
C 1500.51100245 -21.40322252 -24.62542846     2    224   228   229   230
H 1498.97818624 -22.20265576 -25.64370749     6    227    0    0    0
H 1499.75263336 -20.29957464 -23.10433972     6    227    0    0    0
C 1502.28642486 -19.69696054 -26.09967386     2    227   231   232   233
H 1503.82340349 -18.96810922 -24.91269632     6    230    0    0    0
H 1503.27483263 -20.71370085 -27.57005571     6    230    0    0    0
C 1500.89120327 -17.34954130 -27.29377571     2    230   234   235   236
H 1499.38433897 -18.28184878 -28.50694448     6    233    0    0    0
H 1499.98858232 -16.40176463 -25.65910922     6    233    0    0    0
C 1502.59571486 -15.44885942 -28.72166880     1    233   237   238   239
H 1501.68053316 -13.65890320 -29.16195073     6    236    0    0    0
H 1502.96667435 -15.98425515 -30.68218905     6    236    0    0    0
H 1504.34327364 -14.99717019 -27.70368195     6    236    0    0    0
H 1473.99268777 -39.01003840 -14.56333123     6     241    0    0    0
C 1474.92716085 -39.84568148 -12.84362529     1     240    242    243    244
H 1476.51259697 -41.10928007 -13.59963605     6     241    0    0    0
H 1475.59812122 -38.30748123 -11.63800760     6     241    0    0    0
C 1473.15746550 -41.38949110 -11.23147258     2     241    245    246    247
H 1473.04351204 -43.27930487 -11.85784609     6     244    0    0    0
H 1474.17889207 -41.44832559 -9.33935659     6     244    0    0    0
C 1470.60232084 -40.12434167 -10.83829868     2     244    248   249   250
H 1469.52705280 -41.04375438 -9.33863917     6     247    0    0    0
H 1470.90906831 -38.22094851 -10.02459153     6     247    0    0    0
C 1469.07475836 -39.66432179 -13.18351000     2     247   251   252   253
H 1467.29787364 -38.72536708 -12.53450373     6    250    0    0    0
H 1469.96775954 -38.14229708 -14.35128578     6    250    0    0    0
C 1468.77837297 -42.17886375 -14.73759297     2    250   254   255   256
H 1470.67139046 -42.42754226 -15.35881607     6    253    0    0    0
H 1468.26080975 -43.91874701 -13.58454435     6    253    0    0    0
C 1466.89870851 -42.08583899 -16.93269448     2    253   257   258   259
H 1467.05865074 -43.83082925 -17.78901329     6    256    0    0    0
H 1464.92893303 -41.87226707 -16.38153721     6    256    0    0    0
C 1467.79812363 -40.05412095 -18.78753907     2    256   260   261   262
H 1467.35716016 -38.31143997 -17.73165498     6    259    0    0    0
H 1469.79669425 -40.28516988 -19.01561463     6    259    0    0    0
C 1466.36395932 -40.31897325 -21.38561559     2    259   263   264   265
H 1466.49904466 -42.24817685 -22.24794724     6    262    0    0    0
H 1464.33184923 -39.79143256 -21.13742826     6    262    0    0    0
C 1467.65533826 -38.42055990 -23.07337137     2    262   266   267   268
H 1467.84321958 -36.54149619 -22.09027997     6    265    0    0    0
H 1469.40910161 -39.32099462 -23.42749624     6    265    0    0    0
C 1466.28012834 -38.06631066 -25.68906561     2    265   269   270   271
H 1466.28640433 -39.79167828 -26.83020647     6    268    0    0    0
H 1464.33331103 -37.47684782 -25.45819029     6    268    0    0    0
C 1467.64420565 -36.05949944 -27.28983883     2    268   272   273   274
H 1467.30234375 -34.20758497 -26.42595930     6    271    0    0    0
H 1469.65228066 -36.27151584 -27.53228405     6    271    0    0    0
C 1466.59861488 -35.82222429 -29.90929943     1    271   275   276   277
H 1466.85848587 -37.57412489 -31.20276466     6    274    0    0    0
H 1467.61711378 -34.17623071 -30.60450057     6    274    0    0    0
H 1464.55995583 -35.34340681 -30.09701420     6    274    0    0    0
H 1490.70203028 -48.47573100 -12.60469839     6     279    0    0    0
C 1491.46911015 -46.92888139 -11.52984914     1     278    280    281    282
H 1491.41484782 -47.47128512 -9.52347608     6     279    0    0    0
H 1493.49254611 -46.75168158 -11.67841893     6     279    0    0    0
C 1490.03145116 -44.46512613 -12.28069918     2     279    283    284    285
H 1488.10107744 -44.69778343 -11.46168229     6     282    0    0    0
H 1490.69692936 -42.95539594 -11.26832077     6     282    0    0    0
C 1490.12281258 -44.18631430 -15.21950893     2     282    286   287   288
H 1491.93667989 -44.48145884 -15.92685314     6     285    0    0    0
H 1488.82856031 -45.23799622 -16.53802797     6     285    0    0    0
C 1489.34013053 -41.52651549 -16.04331658     2     285   289   290   291
H 1487.50570407 -41.12740568 -15.19947522     6    288    0    0    0
H 1490.40673687 -40.12572317 -15.07015804     6    288    0    0    0
C 1489.66804412 -40.80440020 -18.83844725     2    288   292   293   294
H 1491.52990897 -40.51206888 -19.27577738     6    291    0    0    0
H 1489.00912463 -42.50566201 -20.04394552     6    291    0    0    0
C 1488.28767396 -38.32330971 -19.42787922     2    291   295   296   297
H 1486.70026527 -38.13931392 -18.22691706     6    294    0    0    0
H 1489.35096888 -36.77661534 -18.72917122     6    294    0    0    0
C 1487.66097068 -37.88556981 -22.18876013     2    294   298   299   300

   17   -1830.5073721261      2.98E-09 Convergence criterion met
 Total energy in the final basis set = -1828.27787270
 Total job time:  16.57s(wall), 30.05s(cpu)
        *  Thank you very much for using Q-Chem.  Have a nice day.  *

User input: 2 of 2

                  Welcome to Q-Chem
     A Quantum Leap Into The Future Of Chemistry

 Q-Chem 5.4 (devel), Q-Chem, Inc., Pleasanton, CA (2021)

 E. Epifanovsky,  A. T. B. Gilbert,  Xintian Feng,  Joonho Lee,  Yuezhi Mao,
 N. Mardirossian,  P. Pokhilko,  A. White,  M. Wormit,  M. P. Coons,
 A. L. Dempwolff,  Zhengting Gan,  D. Hait,  P. R. Horn,  L. D. Jacobson,
 I. Kaliman,  J. Kussmann,  A. W. Lange,  Ka Un Lao,  D. S. Levine,  Jie Liu,
 S. C. McKenzie,  A. F. Morrison,  K. Nanda,  F. Plasser,  D. R. Rehn,
 M. L. Vidal,  Zhi-Qiang You,  Ying Zhu,  B. Alam,  B. Albrecht,
 A. Aldossary,  E. Alguire,  J. H. Andersen,  D. Barton,  K. Begam,  A. Behn,
 Y. A. Bernard,  E. J. Berquist,  H. Burton,  A. Carreras,  K. Carter-Fenk,
 R. Chakraborty,  A. D. Chien,  K. D. Closser,  V. Cofer-Shabica,
 S. Dasgupta,  Jia Deng,  M. de Wergifosse,  M. Diedenhofen,  Hainam Do,
 S. Ehlert,  Po-Tung Fang,  S. Fatehi,  Qingguo Feng,  T. Friedhoff,
 J. Gayvert,  Qinghui Ge,  G. Gidofalvi,  M. Goldey,  J. Gomes,
 C. Gonzalez-Espinoza,  S. Gulania,  A. Gunina,  M. W. D. Hanson-Heine,
 P. H. P. Harbach,  A. W. Hauser,  M. F. Herbst,  M. Hernandez Vera,
 M. Hodecker,  Z. C. Holden,  S. Houck,  Xunkun Huang,  Kerwin Hui,
 B. C. Huynh,  M. Ivanov,  Hyunjun Ji,  Hanjie Jiang,  B. Kaduk,  S. Kaehler,
 K. Khistyaev,  Jaehoon Kim,  P. Klunzinger,  Z. Koczor-Benda,
 Joong Hoon Koh,  D. Kosenkov,  L. Koulias,  T. Kowalczyk,  C. M. Krauter,
 K. Kue,  A. Kunitsa,  T. Kus,  A. Landau,  K. V. Lawler,  D. Lefrancois,
 S. Lehtola,  Rain Li,  Yi-Pei Li,  Jiashu Liang,  M. Liebenthal,
 Hung-Hsuan Lin,  You-Sheng Lin,  Fenglai Liu,  Kuan-Yu Liu,
 M. Loipersberger,  A. Luenser,  A. Manjanath,  P. Manohar,  E. Mansoor,
 S. F. Manzer,  Shan-Ping Mao,  A. V. Marenich,  T. Markovich,  S. Mason,
 S. A. Maurer,  P. F. McLaughlin,  M. F. S. J. Menger,  J.-M. Mewes,
 S. A. Mewes,  P. Morgante,  J. W. Mullinax,  K. J. Oosterbaan,  G. Paran,
 Alexander C. Paul,  Suranjan K. Paul,  F. Pavosevic,  Zheng Pei,  S. Prager,
 E. I. Proynov,  E. Ramos,  B. Rana,  A. E. Rask,  A. Rettig,  R. M. Richard,
 F. Rob,  E. Rossomme,  T. Scheele,  M. Scheurer,  M. Schneider,
 N. Sergueev,  S. M. Sharada,  W. Skomorowski,  D. W. Small,  C. J. Stein,
 Yu-Chuan Su,  E. J. Sundstrom,  Zhen Tao,  J. Thirman,  T. Tsuchimochi,
 N. M. Tubman,  S. P. Veccham,  O. Vydrov,  J. Wenzel,  J. Witte,  A. Yamada,
 Kun Yao,  S. Yeganeh,  S. R. Yost,  A. Zech,  Igor Ying Zhang,  Xing Zhang,
 Yu Zhang,  D. Zuev,  A. Aspuru-Guzik,  A. T. Bell,  N. A. Besley,
 K. B. Bravaya,  B. R. Brooks,  D. Casanova,  Jeng-Da Chai,  S. Coriani,
 C. J. Cramer,  A. E. DePrince, III,  R. A. DiStasio Jr.,  A. Dreuw,
 B. D. Dunietz,  T. R. Furlani,  W. A. Goddard III,  S. Grimme,
 S. Hammes-Schiffer,  T. Head-Gordon,  W. J. Hehre,  Chao-Ping Hsu,
 T.-C. Jagau,  Yousung Jung,  A. Klamt,  Jing Kong,  D. S. Lambrecht,
 WanZhen Liang,  N. J. Mayhall,  C. W. McCurdy,  J. B. Neaton,
 C. Ochsenfeld,  J. A. Parkhill,  R. Peverati,  V. A. Rassolov,  Yihan Shao,
 L. V. Slipchenko,  T. Stauch,  R. P. Steele,  J. E. Subotnik,
 A. J. W. Thom,  A. Tkatchenko,  D. G. Truhlar,  T. Van Voorhis,
 T. A. Wesolowski,  K. B. Whaley,  H. L. Woodcock III,  P. M. Zimmerman,
 S. Faraji,  P. M. W. Gill,  M. Head-Gordon,  J. M. Herbert,  A. I. Krylov

 Additional authors for Version 5.4.1:
 S. Kotaru,  Shaozhi Li,  Xiangyuan Li,  F. Matz,  A. Molle,  Haisheng Ren,
 Yingli Su,  Hung-Yi Tsai,  C. Utku,  Fang Wang

 Contributors to earlier versions of Q-Chem not listed above:
 R. D. Adamson,  B. Austin,  R. Baer,  J. Baker,  G. J. O. Beran,
 K. Brandhorst,  S. T. Brown,  E. F. C. Byrd,  A. K. Chakraborty,
 G. K. L. Chan,  Chun-Min Chang,  Yunqing Chen,  C.-L. Cheng,
 Siu Hung Chien,  D. M. Chipman,  D. L. Crittenden,  H. Dachsel,
 R. J. Doerksen,  A. D. Dutoi,  R. G. Edgar,  J. Fosso-Tande,
 L. Fusti-Molnar,  D. Ghosh,  A. Ghysels,  A. Golubeva-Zadorozhnaya,
 J. Gonthier,  M. S. Gordon,  S. R. Gwaltney,  G. Hawkins,  J. E. Herr,
 A. Heyden,  S. Hirata,  E. G. Hohenstein,  G. Kedziora,  F. J. Keil,
 C. Kelley,  Jihan Kim,  R. A. King,  R. Z. Khaliullin,  P. P. Korambath,
 W. Kurlancheek,  A. Laurent,  A. M. Lee,  M. S. Lee,  S. V. Levchenko,
 Ching Yeh Lin,  D. Liotard,  E. Livshits,  R. C. Lochan,  I. Lotan,
 L. A. Martinez-Martinez,  P. E. Maslen,  N. Nair,  D. P. O'Neill,
 D. Neuhauser,  E. Neuscamman,  C. M. Oana,  R. Olivares-Amaya,  R. Olson,
 T. M. Perrine,  B. Peters,  P. A. Pieniazek,  A. Prociuk,  Y. M. Rhee,
 J. Ritchie,  M. A. Rohrdanz,  E. Rosta,  N. J. Russ,  H. F. Schaefer III,
 M. W. Schmidt,  N. E. Schultz,  S. Sharma,  N. Shenvi,  C. D. Sherrill,
 A. C. Simmonett,  A. Sodt,  T. Stein,  D. Stuck,  K. S. Thanthiriwatte,
 V. Vanovschi,  L. Vogt,  Tao Wang,  A. Warshel,  M. A. Watson,
 C. F. Williams,  Q. Wu,  X. Xu,  Jun Yang,  W. Zhang,  Yan Zhao

 Please cite Q-Chem as follows:
 Y. Shao et al., Mol. Phys. 113, 184-215 (2015)
 DOI: 10.1080/00268976.2014.952696

 Q-Chem 5.4.1 for Intel X86 EM64T Linux

 Parts of Q-Chem use Armadillo 9.900.5 (Nocturnal Misbehaviour).
 http://arma.sourceforge.net/

 Q-Chem begins on Wed Jun 22 16:41:40 2022

 Host: p09r14n13.grace.hpc.yale.internal
0

     Scratch files written to /home/tl686/scratch60/qchem_dev/scratch/qchem247202//
 Processing $rem in /home/tl686/qchem_dev/qchem/config/preferences:
 Processing $rem in /home/tl686/.qchemrc:
Applying user defined connections for MM calculations
The previous job contains 0 fragments, simply inherited here

 Checking the input file for inconsistencies... 	...done.

--------------------------------------------------------------
User input:
--------------------------------------------------------------

$molecule
READ
$end

$qm_atoms
1:11
$end

$force_field_params
NumAtomTypes 3
AtomType -1   0.0238     3.11   0.2868
AtomType -2   0.07124    3.30   0.6597
AtomType -3  -0.0760     3.09   0.1434
$end

$rem
     JOBTYPE  freq
     METHOD   bp86
     BASIS    def2-msvp
     MAX_SCF_CYCLES   800
     INPUT_BOHR TRUE
     SYM_IGNORE TRUE
     SCF_GUESS     read
     user_connect            true
     qm_mm_interface         ONIOM
     force_field             oplsaa
$end

--------------------------------------------------------------

    2   -1830.5073721257      5.17E-09 Convergence criterion met
 Total energy in the final basis set = -1828.27787270

                    Orbital Energies (a.u.)
 --------------------------------------------------------------

 Alpha MOs
 -- Occupied --
******** -29.6386 -25.5986 -25.5856 -25.5820 -18.8947 -18.8869 -18.8820
-18.8781 -18.8667 -10.0674 -10.0562 -10.0496 -10.0487 -10.0377  -3.3235
 -2.1594  -2.1349  -2.1265  -1.0592  -1.0556  -1.0506  -1.0367  -1.0234
 -0.5785  -0.5341  -0.5217  -0.5171  -0.5135  -0.4595  -0.4493  -0.4405
 -0.4336  -0.4316  -0.4235  -0.4207  -0.4180  -0.4092  -0.4043  -0.4022
 -0.3992  -0.3944  -0.3921  -0.3778  -0.2794  -0.2756  -0.2383  -0.2220

          Ground-State Mulliken Net Atomic Charges

     Atom                 Charge (a.u.)
  ----------------------------------------
      1 Fe                   -0.476078
      2 C                     0.212475
      3 C                     0.224361
      4 C                     0.194667
      5 C                     0.230706
      6 C                     0.233655
      7 O                    -0.149369
      8 O                    -0.114772
      9 O                    -0.111316
     10 O                    -0.111227
     11 O                    -0.133101
  ----------------------------------------
  Sum of atomic charges =     0.000000

                    Cartesian Multipole Moments
 -----------------------------------------------------------------
    Charge (ESU x 10^10)
                -0.0000
    Dipole Moment (Debye)
         X       0.3505389605      Y       0.3278218302      Z      -0.0506737731
       Tot       0.4826101392
    Quadrupole Moments (Debye-Ang)
        XX     477.3940     XY     252.2317     YY     -77.8568
        XZ     -38.1660     YZ       0.8663     ZZ     -67.7682
