 Q-Chem 5.4 (devel), Q-Chem, Inc., Pleasanton, CA (2021)
 Q-Chem 5.4.1 for Intel X86 EM64T Linux

User input:
--------------------------------------------------------------
$molecule
0   1
 Fe 840.86003776 -62.80585544 50.06226701    -1  0   0   0   0
C 841.39923911 -65.58839934 51.84655224    -2  0   0   0   0
C 840.35498243 -59.81131638 48.32185697    -2  0   0   0   0
C 837.46443467 -63.70029998 50.01760656    -2  0   0   0   0
C 841.95640383 -61.30539406 52.85033345    -2  0   0   0   0
C 843.21677823 -63.63258834 47.81031073    -2  0   0   0   0
O 841.82054889 -67.21065997 53.24302402    -3  0   0   0   0
O 840.30829109 -57.88503040 47.29900258    -3  0   0   0   0
O 835.31325127 -64.18728635 50.16341392    -3  0   0   0   0
O 842.64175939 -60.70918674 54.90328281    -3  0   0   0   0
O 844.80918144 -64.00802314 46.31597703    -3  0   0   0   0
H 820.40541261 -83.54176321 61.42847696      6     13    0    0    0
C 819.37015271 -81.94959941 62.24870636     1     12    14    15    16
H 818.55262251 -80.99038162 60.62201455     6     13    0    0    0
H 817.97293140 -82.78837270 63.53695404     6     13    0    0    0
C 821.45819343 -80.38415720 63.54289454     2     13    17    18    19
H 822.56121285 -79.57412045 62.03688265     6     16    0    0    0
H 820.71175019 -78.69308877 64.47961115     6     16    0    0    0
C 823.13506658 -81.77425543 65.28211460     2     16    20   21   22
H 822.08891562 -82.31663851 67.01474576     6     19    0    0    0
H 823.61336230 -83.65467617 64.53158875     6     19    0    0    0
C 825.55036442 -80.36442077 65.68148787     2     19   23   24   25
H 826.58156912 -80.29073938 63.94292163     6    22    0    0    0
H 825.01415053 -78.39722459 66.36280574     6    22    0    0    0
C 827.24093643 -81.50962804 67.70481118     2    22   26   27   28
H 826.55814423 -80.99917342 69.45491865     6    25    0    0    0
H 826.99679846 -83.55114861 67.54442834     6    25    0    0    0
C 829.91622349 -80.75103189 67.53831699     2    25   29   30   31
H 830.75894391 -81.49974496 65.80958962     6    28    0    0    0
H 829.87385848 -78.75861965 67.47744523     6    28    0    0    0
C 831.59070672 -81.48913503 69.86572207     2    28   32   33   34
H 831.11072649 -80.42732730 71.44165943     6    31    0    0    0
H 831.67025545 -83.44154494 70.61510786     6    31    0    0    0
C 834.54541963 -81.09493469 69.30334360     2    31   35   36   37
H 835.30822921 -81.84446844 67.51704444     6    34    0    0    0
H 834.57139198 -79.23056038 68.81255682     6    34    0    0    0
C 836.22737460 -81.77756619 71.61264534     2    34   38   39   40
H 835.03150052 -81.81432047 73.23696863     6    37    0    0    0
H 836.61103731 -83.69275891 71.39103490     6    37    0    0    0
C 838.68919321 -80.23501423 71.82366376     2    37   41   42   43
H 839.43473454 -79.95271495 70.01788070     6    40    0    0    0
H 838.31239078 -78.36497276 72.65696822     6    40    0    0    0
C 840.76535164 -81.56274091 73.38546748     2    40   44   45   46
H 840.21580034 -81.40316705 75.42589736     6    43    0    0    0
H 840.56370262 -83.64922833 73.03617430     6    43    0    0    0
C 843.39363693 -80.40247733 72.87750065     1    43   47   48   49
H 843.51765650 -80.25280199 70.84595099     6    46    0    0    0
H 845.01303763 -81.46529893 73.41997650     6    46    0    0    0
H 843.39099418 -78.39678545 73.36273466     6    46    0    0    0
H 847.56307779 -70.83675559 56.91725571     6     51    0    0    0
C 845.88438273 -69.56625789 56.79146445     1     50    52    53    54
H 846.41754616 -67.93316513 57.93593213     6     51    0    0    0
H 845.67548263 -68.90601187 54.91176403     6     51    0    0    0
C 843.64734602 -71.05061859 57.75122898     2     51    55    56    57
H 841.93687141 -70.50714212 56.86004391     6     54    0    0    0
H 843.83499897 -73.09277035 57.28604481     6     54    0    0    0
C 843.30108127 -70.70918661 60.59983405     2     54    58   59   60
H 843.68120077 -68.66157853 60.99814902     6     57    0    0    0
H 841.29373525 -70.87361903 61.01570766     6     57    0    0    0
C 845.16707838 -72.63793245 61.90315565     2     57   61   62   63
H 844.72312107 -74.55339721 61.26939084     6    60    0    0    0
H 847.11292886 -72.25138130 61.38476240     6    60    0    0    0
C 845.24284746 -72.52245083 64.97581009     2    60   64   65   66
H 845.19289937 -70.59047167 65.54871734     6    63    0    0    0
H 843.50858224 -73.34979205 65.93355850     6    63    0    0    0
C 847.45266662 -74.13537603 65.90956996     2    63   67   68   69
H 847.25880798 -74.92690453 67.80851635     6    66    0    0    0
H 847.63707810 -75.75845520 64.52124311     6    66    0    0    0
C 850.07082984 -72.80546161 65.98517120     2    66   70   71   72
H 850.66948047 -72.20286211 64.10741534     6    69    0    0    0
H 850.04265446 -71.29965938 67.29376667     6    69    0    0    0
C 852.10576000 -74.36058320 67.22134902     2    69   73   74   75
H 851.80837344 -74.97393859 69.20419315     6    72    0    0    0
H 852.25959900 -76.13095284 66.03746682     6    72    0    0    0
C 854.62696932 -73.14746345 67.23725183     2    72   76   77   78
H 855.01327981 -72.36946155 65.43646533     6    75    0    0    0
H 854.70644149 -71.51944131 68.55875267     6    75    0    0    0
C 856.81962541 -74.92333141 67.84809016     2    75   79   80   81
H 856.83046501 -75.45884808 69.75052523     6    78    0    0    0
H 856.67001291 -76.64523930 66.76415183     6    78    0    0    0
C 859.49747236 -73.62541390 67.61126727     2    78   82   83   84
H 859.85473601 -73.49038321 65.66336284     6    81    0    0    0
H 859.22450610 -71.58838522 68.09557029     6    81    0    0    0
C 861.65457244 -75.13267395 68.85117319     1    81   85   86   87
H 863.40298173 -74.16877763 68.76533165     6    84    0    0    0
H 861.90873597 -76.99953219 68.04984306     6    84    0    0    0
H 861.36714595 -75.28004100 70.95578598     6    84    0    0    0
H 832.03499888 -60.25517383 81.97149609     6     89    0    0    0
C 833.89680536 -60.51509007 81.06603176     1     88    90    91    92
H 833.51932957 -60.52920134 79.03113036     6     89    0    0    0
H 835.17802834 -59.01892418 81.47758368     6     89    0    0    0
C 834.86469493 -63.18838623 81.74942778     2     89    93    94    95
H 835.19490776 -63.11257605 83.83602931     6     92    0    0    0
H 833.74371390 -64.81727950 81.48608944     6     92    0    0    0
C 837.39550426 -63.84998801 80.67644704     2     92    96   97   98
H 837.31464522 -64.06083702 78.67606056     6     95    0    0    0
H 838.67618043 -62.21955835 80.62619363     6     95    0    0    0
C 838.56449724 -66.32692380 81.56359744     2     95   99   100   101
H 838.77944568 -66.34698395 83.69715609     6    98    0    0    0
H 837.15426038 -67.75897775 81.12846960     6    98    0    0    0
C 841.20998204 -66.68426833 80.41748701     2    98   102   103   104
H 841.16583950 -67.07210857 78.34303352     6    101    0    0    0
H 842.42129396 -65.07926417 80.74768072     6    101    0    0    0
C 842.51142826 -69.02192093 81.71758418     2    101   105   106   107
H 841.14984235 -70.46446763 81.42295446     6    104    0    0    0
H 844.16871956 -69.41165168 80.64970048     6    104    0    0    0
C 843.38760042 -68.68871730 84.42777966     2    104   108   109   110
H 844.72616488 -67.22983154 84.47087863     6    107    0    0    0
H 841.75490219 -68.49327472 85.77798496     6    107    0    0    0
C 844.60911438 -71.10394862 85.17758792     2    107   111   112   113
H 843.59318417 -72.88640632 84.85790307     6    110    0    0    0
H 846.44714768 -71.36005530 84.18343631     6    110    0    0    0
C 845.44775905 -70.87937798 87.93850283     2    110   114   115   116
H 846.59460633 -69.23301910 88.02641008     6    113    0    0    0
H 843.92767936 -70.83100895 89.15468635     6    113    0    0    0
C 846.98812417 -73.12433744 88.98156149     2    113   117   118   119
H 846.29335498 -74.96072390 88.13984681     6    116    0    0    0
H 848.91007868 -72.80298526 88.25366981     6    116    0    0    0
C 846.97773534 -73.28559709 91.78614317     2    116   120   121   122
H 848.73882572 -74.33880815 92.30643450     6    119    0    0    0
H 847.27108533 -71.43982830 92.54833223     6    119    0    0    0
C 844.67924918 -74.58657854 93.00275425     1    119   123   124   125
H 845.14038069 -75.04512443 95.00493740     6    122    0    0    0
H 844.51896495 -76.51497202 92.16988996     6    122    0    0    0
H 842.97275089 -73.51874596 93.20395196     6    122    0    0    0
H 830.43032073 -47.12734181 75.51736199     6     127    0    0    0
C 829.93376608 -46.62423386 73.45860588     1     126    128    129    130
H 828.47077795 -45.27047593 73.67191090     6     127    0    0    0
H 831.45162481 -45.68073427 72.46262338     6     127    0    0    0
C 829.04798063 -48.96679675 71.76697935     2     127    131    132    133
H 830.43155666 -50.48516246 71.99185285     6     130    0    0    0
H 827.36489460 -49.70436924 72.73418227     6     130    0    0    0
C 828.64443071 -48.26171450 68.89589485     2     130    134   135   136
H 827.40597375 -46.67149625 68.82840254     6     133    0    0    0
H 830.49529951 -47.58807944 68.12054245     6     133    0    0    0
C 828.18593798 -50.58033083 67.30965160     2     133   137   138   139
H 829.36543034 -52.08423013 67.85043954     6    136    0    0    0
H 826.23962765 -51.25910815 67.69904272     6    136    0    0    0
C 828.67510713 -50.16337061 64.50413125     2    136   140   141   142
H 827.68356647 -48.46360233 63.98873300     6    139    0    0    0
H 830.69480504 -49.74031377 64.21979207     6    139    0    0    0
C 828.06295389 -52.42819014 62.77159199     2    139   143   144   145
H 829.13011682 -54.24701177 63.01824864     6    142    0    0    0
H 826.00922847 -52.90023298 62.80827255     6    142    0    0    0
C 828.57661093 -51.56418238 59.98056054     2    142   146   147   148
H 828.30290078 -49.56859841 59.50906709     6    145    0    0    0
H 830.62254734 -51.61270880 59.80647647     6    145    0    0    0
C 827.33453585 -53.26316605 58.02517750     2    145   149   150   151
H 828.54618512 -54.90250199 57.94523768     6    148    0    0    0
H 825.52645257 -54.12741838 58.52926367     6    148    0    0    0
C 826.73836718 -52.22726957 55.42112492     2    148   152   153   154
H 825.20994324 -50.84390568 55.52924763     6    151    0    0    0
H 828.35619632 -51.40341945 54.75545482     6    151    0    0    0
C 826.17409174 -54.38572793 53.40344620     2    151   155   156   157
H 826.13196650 -53.37217708 51.60299706     6    154    0    0    0
H 827.90848364 -55.53826299 53.11010089     6    154    0    0    0
C 823.63330191 -55.82670865 53.70189333     2    154   158   159   160
H 824.13815424 -57.50147079 54.75804585     6    157    0    0    0
H 822.53758066 -54.53944920 54.74816299     6    157    0    0    0
C 822.32394914 -56.53294106 51.20976509     1    157   161   162   163
H 820.78431978 -57.61775114 51.87483145     6    160    0    0    0
H 823.54445021 -57.72141125 50.11145677     6    160    0    0    0
H 821.83146725 -54.74805067 50.36266018     6    160    0    0    0
H 840.18852295 -47.09097268 85.32680703     6     165    0    0    0
C 839.36351329 -47.16364971 83.40712407     1     164    166    167    168
H 840.38162188 -48.38738185 82.21600661     6     165    0    0    0
H 837.40438381 -47.98382309 83.41477853     6     165    0    0    0
C 839.08745792 -44.57752747 82.08129470     2     165    169    170    171
H 838.10550164 -43.42678486 83.39432125     6     168    0    0    0
H 841.06244711 -43.82239782 82.03821373     6     168    0    0    0
C 837.62217675 -44.52789553 79.44976016     2     168    172   173   174
H 838.68779057 -45.50849111 77.96999612     6     171    0    0    0
H 835.88640188 -45.60173552 79.71820852     6     171    0    0    0
C 836.82153407 -41.85628599 78.64048052     2     171   175   176   177
H 835.28665973 -41.28821864 79.87554867     6    174    0    0    0
H 838.42838472 -40.60910418 79.09876065     6    174    0    0    0
C 836.50154981 -41.40428591 75.82902732     2    174   178   179   180
H 838.04799874 -41.92422219 74.62395098     6    177    0    0    0
H 835.02310267 -42.69760224 74.92969110     6    177    0    0    0
C 835.61293540 -38.62723842 75.28000239     2    177   181   182   183
H 833.90495976 -38.30285703 76.28204292     6    180    0    0    0
H 836.85348833 -37.24499638 76.21084915     6    180    0    0    0
C 835.86170816 -38.08288044 72.42011496     2    180   184   185   186
H 837.82443173 -38.29165137 71.79705532     6    183    0    0    0
H 834.96303419 -39.57809914 71.32890691     6    183    0    0    0
C 834.82625550 -35.40610416 71.82975737     2    183   187   188   189
H 833.00693449 -35.02995609 72.67506705     6    186    0    0    0
H 835.93354836 -33.85702242 72.73026906     6    186    0    0    0
C 834.75744115 -34.89527730 68.86918989     2    186   190   191   192
H 836.81040429 -34.70778059 68.33449585     6    189    0    0    0
H 833.89328247 -36.67008979 68.19898945     6    189    0    0    0
C 833.37191583 -32.53136577 67.92308042     2    189   193   194   195
H 831.43741027 -32.67770597 68.51245462     6    192    0    0    0
H 834.11476408 -31.14609174 69.10348692     6    192    0    0    0
C 833.63629605 -32.11630076 65.05144491     2    192   196   197   198
H 835.64464395 -32.17802486 64.63496102     6    195    0    0    0
H 832.81837096 -33.78924155 63.99691359     6    195    0    0    0
C 832.43533959 -29.57800276 64.19518575     1    195   199   200   201
H 833.16988320 -29.57229014 62.30609604     6    198    0    0    0
H 832.91325378 -27.99309912 65.36020902     6    198    0    0    0
H 830.38588953 -29.69503946 64.30388993     6    198    0    0    0
H 851.33237838 -49.52491182 67.66527236     6     203    0    0    0
C 850.63211271 -48.48596498 69.26627720     1     202    204    205    206
H 851.61147025 -46.81075056 68.96198499     6     203    0    0    0
H 848.55066365 -48.30269923 69.30863771     6     203    0    0    0
C 851.65629243 -49.83675998 71.64656465     2     203    207    208    209
H 850.90458984 -49.00375446 73.37474574     6     206    0    0    0
H 850.76716673 -51.59422501 71.63239376     6     206    0    0    0
C 854.60941599 -50.31574965 71.53555725     2     206    210   211   212
H 855.28412623 -51.72970065 72.94984067     6     209    0    0    0
H 855.12193073 -51.10080905 69.63826085     6     209    0    0    0
C 856.16953806 -47.91820173 71.55829172     2     209   213   214   215
H 856.16851272 -47.05242675 69.64085201     6    212    0    0    0
H 855.18196177 -46.69486099 72.80566117     6    212    0    0    0
C 858.90935892 -48.23720050 72.49390317     2    212   216   217   218
H 858.65140995 -48.97059202 74.37812110     6    215    0    0    0
H 859.68260160 -49.84476949 71.50202717     6    215    0    0    0
C 860.75354567 -45.97190794 72.47879721     2    215   219   220   221
H 860.93462664 -45.42758557 70.51560344     6    218    0    0    0
H 860.05673951 -44.25293671 73.43687359     6    218    0    0    0
C 863.42674333 -46.67093508 73.29063093     2    218   222   223   224
H 863.27472596 -47.28356056 75.22461948     6    221    0    0    0
H 864.36359941 -48.28857979 72.51988034     6    221    0    0    0
C 865.36880216 -44.47693138 73.05809467     2    221   225   226   227
H 865.31768614 -43.57150249 71.13325128     6    224    0    0    0
H 865.01561269 -43.16528459 74.51223246     6    224    0    0    0
C 867.95314693 -45.30243868 73.46232826     2    224   228   229   230
H 867.80743058 -46.33248283 75.23136507     6    227    0    0    0
H 868.44904984 -46.51178527 71.90147559     6    227    0    0    0
C 869.93443568 -43.12595614 73.54560744     2    227   231   232   233
H 869.03002387 -41.60927438 72.57643828     6    230    0    0    0
H 870.22695329 -42.54038574 75.39751024     6    230    0    0    0
C 872.39883306 -43.93379560 72.29090353     2    230   234   235   236
H 873.32239460 -44.88465795 73.91699243     6    233    0    0    0
H 872.13931040 -45.27188237 70.80611953     6    233    0    0    0
C 873.83839196 -41.60048214 71.37475899     1    233   237   238   239
H 875.67890734 -42.13999788 70.80822760     6    236    0    0    0
H 874.05080463 -40.40959785 73.02322986     6    236    0    0    0
H 873.08960168 -40.54962371 69.79603107     6    236    0    0    0
H 856.56410073 -78.03744355 73.93068803     6     241    0    0    0
C 854.93729016 -77.38624926 75.09341369     1     240    242    243    244
H 855.69284512 -76.17502921 76.46350356     6     241    0    0    0
H 853.70692886 -76.29432623 73.82230246     6     241    0    0    0
C 853.26660348 -79.48926080 76.36344353     2     241    245    246    247
H 854.33173587 -80.82430173 77.42350425     6     244    0    0    0
H 852.39272747 -78.61736906 77.83859816     6     244    0    0    0
C 851.45710319 -80.94710162 74.58001662     2     244    248   249   250
H 850.18932702 -82.17888785 75.69236754     6     247    0    0    0
H 850.32797966 -79.58263881 73.49181269     6     247    0    0    0
C 852.71214749 -82.79902789 72.68088451     2     247   251   252   253
H 851.14701820 -84.01785040 71.85386218     6    250    0    0    0
H 853.68495075 -81.89620290 71.15121831     6    250    0    0    0
C 854.57715466 -84.41791104 73.98158688     2    250   254   255   256
H 856.05239967 -83.06809831 74.39592978     6    253    0    0    0
H 853.66781632 -85.15137459 75.71035103     6    253    0    0    0
C 855.64460834 -86.66786922 72.35410711     2    253   257   258   259
H 856.62869632 -87.81522018 73.71160597     6    256    0    0    0
H 854.15827491 -87.84606950 71.63278448     6    256    0    0    0
C 857.48996952 -85.95725518 70.35418136     2    256   260   261   262
H 856.55585462 -84.92945498 69.06397416     6    259    0    0    0
H 859.04805456 -84.73372390 70.94672963     6    259    0    0    0
C 858.98868438 -88.11911307 69.03667393     2    259   263   264   265
H 860.15206048 -89.34114840 70.32701104     6    262    0    0    0
H 857.56637001 -89.36232817 68.08385798     6    262    0    0    0
C 860.86184504 -86.95884153 67.13656705     2    262   266   267   268
H 860.01254454 -85.48850642 66.04743098     6    265    0    0    0
H 862.48553602 -86.00611321 68.18042052     6    265    0    0    0
C 861.88562188 -89.01511766 65.42620979     2    265   269   270   271
H 863.27238656 -90.07693697 66.58916357     6    268    0    0    0
H 860.30506068 -90.18195147 64.83233482     6    268    0    0    0
C 863.22701530 -88.12763304 62.99446265     2    268   272   273   274
H 862.15939833 -86.42052806 62.24576082     6    271    0    0    0
H 865.09932770 -87.38758180 63.36072106     6    271    0    0    0
C 863.65659048 -90.19946771 61.06445588     1    271   275   276   277
H 864.67468136 -91.73461493 62.00304919     6    274    0    0    0
H 864.85761681 -89.51988557 59.49948879     6    274    0    0    0
H 861.95306290 -91.09974320 60.37017585     6    274    0    0    0
H 847.56497595 -54.75144203 80.18356888     6     279    0    0    0
C 848.96950081 -56.19606405 80.37730189     1     278    280    281    282
H 849.81503386 -55.72963789 82.17535948     6     279    0    0    0
H 847.93149057 -58.02081919 80.39920527     6     279    0    0    0
C 850.92661994 -56.01326742 78.11545573     2     279    283    284    285
H 849.97275622 -56.05119844 76.25616410     6     282    0    0    0
H 851.98781769 -54.33404912 78.40895621     6     282    0    0    0
C 852.96808209 -57.98599108 78.22682508     2     282    286   287   288
H 853.81943747 -57.72546200 80.02840734     6     285    0    0    0
H 851.99070298 -59.77449189 78.24348134     6     285    0    0    0
C 854.97465201 -58.14510503 76.32933710     2     285   289   290   291
H 854.30206022 -58.75012110 74.41329151     6    288    0    0    0
H 855.78974183 -56.25102488 75.89463829     6    288    0    0    0
C 857.42734932 -59.45351221 77.28623880     2    288   292   293   294
H 858.00712753 -58.60980186 79.17494170     6    291    0    0    0
H 857.04570415 -61.35348418 77.81105210     6    291    0    0    0
C 859.60107881 -59.44116217 75.25945542     2    291   295   296   297
H 859.37336358 -60.37860161 73.49012693     6    294    0    0    0
H 860.16356482 -57.41850533 74.99375450     6    294    0    0    0
C 862.17880903 -60.44511870 76.26997530     2    294   298   299   300

   16   -1830.5215222181      5.13E-09 Convergence criterion met
 Total energy in the final basis set = -1828.21539140
 Total job time:  16.15s(wall), 28.48s(cpu)
        *  Thank you very much for using Q-Chem.  Have a nice day.  *

User input: 2 of 2

                  Welcome to Q-Chem
     A Quantum Leap Into The Future Of Chemistry

 Q-Chem 5.4 (devel), Q-Chem, Inc., Pleasanton, CA (2021)

 E. Epifanovsky,  A. T. B. Gilbert,  Xintian Feng,  Joonho Lee,  Yuezhi Mao,
 N. Mardirossian,  P. Pokhilko,  A. White,  M. Wormit,  M. P. Coons,
 A. L. Dempwolff,  Zhengting Gan,  D. Hait,  P. R. Horn,  L. D. Jacobson,
 I. Kaliman,  J. Kussmann,  A. W. Lange,  Ka Un Lao,  D. S. Levine,  Jie Liu,
 S. C. McKenzie,  A. F. Morrison,  K. Nanda,  F. Plasser,  D. R. Rehn,
 M. L. Vidal,  Zhi-Qiang You,  Ying Zhu,  B. Alam,  B. Albrecht,
 A. Aldossary,  E. Alguire,  J. H. Andersen,  D. Barton,  K. Begam,  A. Behn,
 Y. A. Bernard,  E. J. Berquist,  H. Burton,  A. Carreras,  K. Carter-Fenk,
 R. Chakraborty,  A. D. Chien,  K. D. Closser,  V. Cofer-Shabica,
 S. Dasgupta,  Jia Deng,  M. de Wergifosse,  M. Diedenhofen,  Hainam Do,
 S. Ehlert,  Po-Tung Fang,  S. Fatehi,  Qingguo Feng,  T. Friedhoff,
 J. Gayvert,  Qinghui Ge,  G. Gidofalvi,  M. Goldey,  J. Gomes,
 C. Gonzalez-Espinoza,  S. Gulania,  A. Gunina,  M. W. D. Hanson-Heine,
 P. H. P. Harbach,  A. W. Hauser,  M. F. Herbst,  M. Hernandez Vera,
 M. Hodecker,  Z. C. Holden,  S. Houck,  Xunkun Huang,  Kerwin Hui,
 B. C. Huynh,  M. Ivanov,  Hyunjun Ji,  Hanjie Jiang,  B. Kaduk,  S. Kaehler,
 K. Khistyaev,  Jaehoon Kim,  P. Klunzinger,  Z. Koczor-Benda,
 Joong Hoon Koh,  D. Kosenkov,  L. Koulias,  T. Kowalczyk,  C. M. Krauter,
 K. Kue,  A. Kunitsa,  T. Kus,  A. Landau,  K. V. Lawler,  D. Lefrancois,
 S. Lehtola,  Rain Li,  Yi-Pei Li,  Jiashu Liang,  M. Liebenthal,
 Hung-Hsuan Lin,  You-Sheng Lin,  Fenglai Liu,  Kuan-Yu Liu,
 M. Loipersberger,  A. Luenser,  A. Manjanath,  P. Manohar,  E. Mansoor,
 S. F. Manzer,  Shan-Ping Mao,  A. V. Marenich,  T. Markovich,  S. Mason,
 S. A. Maurer,  P. F. McLaughlin,  M. F. S. J. Menger,  J.-M. Mewes,
 S. A. Mewes,  P. Morgante,  J. W. Mullinax,  K. J. Oosterbaan,  G. Paran,
 Alexander C. Paul,  Suranjan K. Paul,  F. Pavosevic,  Zheng Pei,  S. Prager,
 E. I. Proynov,  E. Ramos,  B. Rana,  A. E. Rask,  A. Rettig,  R. M. Richard,
 F. Rob,  E. Rossomme,  T. Scheele,  M. Scheurer,  M. Schneider,
 N. Sergueev,  S. M. Sharada,  W. Skomorowski,  D. W. Small,  C. J. Stein,
 Yu-Chuan Su,  E. J. Sundstrom,  Zhen Tao,  J. Thirman,  T. Tsuchimochi,
 N. M. Tubman,  S. P. Veccham,  O. Vydrov,  J. Wenzel,  J. Witte,  A. Yamada,
 Kun Yao,  S. Yeganeh,  S. R. Yost,  A. Zech,  Igor Ying Zhang,  Xing Zhang,
 Yu Zhang,  D. Zuev,  A. Aspuru-Guzik,  A. T. Bell,  N. A. Besley,
 K. B. Bravaya,  B. R. Brooks,  D. Casanova,  Jeng-Da Chai,  S. Coriani,
 C. J. Cramer,  A. E. DePrince, III,  R. A. DiStasio Jr.,  A. Dreuw,
 B. D. Dunietz,  T. R. Furlani,  W. A. Goddard III,  S. Grimme,
 S. Hammes-Schiffer,  T. Head-Gordon,  W. J. Hehre,  Chao-Ping Hsu,
 T.-C. Jagau,  Yousung Jung,  A. Klamt,  Jing Kong,  D. S. Lambrecht,
 WanZhen Liang,  N. J. Mayhall,  C. W. McCurdy,  J. B. Neaton,
 C. Ochsenfeld,  J. A. Parkhill,  R. Peverati,  V. A. Rassolov,  Yihan Shao,
 L. V. Slipchenko,  T. Stauch,  R. P. Steele,  J. E. Subotnik,
 A. J. W. Thom,  A. Tkatchenko,  D. G. Truhlar,  T. Van Voorhis,
 T. A. Wesolowski,  K. B. Whaley,  H. L. Woodcock III,  P. M. Zimmerman,
 S. Faraji,  P. M. W. Gill,  M. Head-Gordon,  J. M. Herbert,  A. I. Krylov

 Additional authors for Version 5.4.1:
 S. Kotaru,  Shaozhi Li,  Xiangyuan Li,  F. Matz,  A. Molle,  Haisheng Ren,
 Yingli Su,  Hung-Yi Tsai,  C. Utku,  Fang Wang

 Contributors to earlier versions of Q-Chem not listed above:
 R. D. Adamson,  B. Austin,  R. Baer,  J. Baker,  G. J. O. Beran,
 K. Brandhorst,  S. T. Brown,  E. F. C. Byrd,  A. K. Chakraborty,
 G. K. L. Chan,  Chun-Min Chang,  Yunqing Chen,  C.-L. Cheng,
 Siu Hung Chien,  D. M. Chipman,  D. L. Crittenden,  H. Dachsel,
 R. J. Doerksen,  A. D. Dutoi,  R. G. Edgar,  J. Fosso-Tande,
 L. Fusti-Molnar,  D. Ghosh,  A. Ghysels,  A. Golubeva-Zadorozhnaya,
 J. Gonthier,  M. S. Gordon,  S. R. Gwaltney,  G. Hawkins,  J. E. Herr,
 A. Heyden,  S. Hirata,  E. G. Hohenstein,  G. Kedziora,  F. J. Keil,
 C. Kelley,  Jihan Kim,  R. A. King,  R. Z. Khaliullin,  P. P. Korambath,
 W. Kurlancheek,  A. Laurent,  A. M. Lee,  M. S. Lee,  S. V. Levchenko,
 Ching Yeh Lin,  D. Liotard,  E. Livshits,  R. C. Lochan,  I. Lotan,
 L. A. Martinez-Martinez,  P. E. Maslen,  N. Nair,  D. P. O'Neill,
 D. Neuhauser,  E. Neuscamman,  C. M. Oana,  R. Olivares-Amaya,  R. Olson,
 T. M. Perrine,  B. Peters,  P. A. Pieniazek,  A. Prociuk,  Y. M. Rhee,
 J. Ritchie,  M. A. Rohrdanz,  E. Rosta,  N. J. Russ,  H. F. Schaefer III,
 M. W. Schmidt,  N. E. Schultz,  S. Sharma,  N. Shenvi,  C. D. Sherrill,
 A. C. Simmonett,  A. Sodt,  T. Stein,  D. Stuck,  K. S. Thanthiriwatte,
 V. Vanovschi,  L. Vogt,  Tao Wang,  A. Warshel,  M. A. Watson,
 C. F. Williams,  Q. Wu,  X. Xu,  Jun Yang,  W. Zhang,  Yan Zhao

 Please cite Q-Chem as follows:
 Y. Shao et al., Mol. Phys. 113, 184-215 (2015)
 DOI: 10.1080/00268976.2014.952696

 Q-Chem 5.4.1 for Intel X86 EM64T Linux

 Parts of Q-Chem use Armadillo 9.900.5 (Nocturnal Misbehaviour).
 http://arma.sourceforge.net/

 Q-Chem begins on Wed Jun  1 23:30:39 2022

 Host: p09r14n13.grace.hpc.yale.internal
0

     Scratch files written to /home/tl686/scratch60/qchem_dev/scratch/qchem244445//
 Processing $rem in /home/tl686/qchem_dev/qchem/config/preferences:
 Processing $rem in /home/tl686/.qchemrc:
Applying user defined connections for MM calculations
The previous job contains 0 fragments, simply inherited here

 Checking the input file for inconsistencies... 	...done.

--------------------------------------------------------------
User input:
--------------------------------------------------------------

$molecule
READ
$end

$qm_atoms
1:11
$end

$force_field_params
NumAtomTypes 3
AtomType -1   0.0238     3.11   0.2868
AtomType -2   0.07124    3.30   0.6597
AtomType -3  -0.0760     3.09   0.1434
$end

$rem
     JOBTYPE  freq
     METHOD   bp86
     BASIS    def2-msvp
     MAX_SCF_CYCLES   800
     INPUT_BOHR TRUE
     SYM_IGNORE TRUE
     SCF_GUESS     read
     user_connect            true
     qm_mm_interface         ONIOM
     force_field             oplsaa
$end

--------------------------------------------------------------

    2   -1830.5215222176      6.18E-09 Convergence criterion met
 Total energy in the final basis set = -1828.21539140

                    Orbital Energies (a.u.)
 --------------------------------------------------------------

 Alpha MOs
 -- Occupied --
******** -29.6371 -25.5969 -25.5834 -25.5812 -18.8937 -18.8877 -18.8816
-18.8715 -18.8687 -10.0585 -10.0574 -10.0481 -10.0412 -10.0398  -3.3220
 -2.1578  -2.1312  -2.1273  -1.0701  -1.0671  -1.0498  -1.0400  -1.0298
 -0.5769  -0.5303  -0.5206  -0.5163  -0.5132  -0.4592  -0.4470  -0.4443
 -0.4387  -0.4359  -0.4307  -0.4224  -0.4163  -0.4122  -0.4098  -0.4018
 -0.4010  -0.3983  -0.3957  -0.3780  -0.2790  -0.2754  -0.2353  -0.2224

          Ground-State Mulliken Net Atomic Charges

     Atom                 Charge (a.u.)
  ----------------------------------------
      1 Fe                   -0.486574
      2 C                     0.181542
      3 C                     0.216247
      4 C                     0.222913
      5 C                     0.230450
      6 C                     0.213713
      7 O                    -0.100888
      8 O                    -0.093102
      9 O                    -0.114067
     10 O                    -0.142292
     11 O                    -0.127942
  ----------------------------------------
  Sum of atomic charges =     0.000000

                    Cartesian Multipole Moments
 -----------------------------------------------------------------
    Charge (ESU x 10^10)
                -0.0000
    Dipole Moment (Debye)
         X      -0.3685666000      Y       0.0126186410      Z      -0.3443251393
       Tot       0.5045397608
    Quadrupole Moments (Debye-Ang)
        XX    -398.0876     XY      17.4827     YY     -68.6863
        XZ    -162.4745     YZ      11.2330     ZZ     -89.3624
