 Q-Chem 5.4 (devel), Q-Chem, Inc., Pleasanton, CA (2021)
 Q-Chem 5.4.1 for Intel X86 EM64T Linux

User input:
--------------------------------------------------------------
$molecule
0   1
 Fe 1117.88774051 40.86973652 -60.68278137    -1  0   0   0   0
C 1114.68428198 41.87378986 -60.36914063    -2  0   0   0   0
C 1120.83728868 39.80052334 -61.73645334    -2  0   0   0   0
C 1118.67103780 43.98422912 -61.87413060    -2  0   0   0   0
C 1118.38912256 40.07653046 -57.29930749    -2  0   0   0   0
C 1116.95631678 38.20359400 -62.52650487    -2  0   0   0   0
O 1112.60406556 42.87727456 -60.22458897    -3  0   0   0   0
O 1122.75624775 39.23024444 -62.66303610    -3  0   0   0   0
O 1118.74420498 45.87441309 -62.94775333    -3  0   0   0   0
O 1118.73092796 39.51382288 -55.22528488    -3  0   0   0   0
O 1116.46060642 36.61618848 -63.95562155    -3  0   0   0   0
H 1114.98477340 64.63192550 -48.07882480      6     13    0    0    0
C 1113.50040856 64.94373236 -49.25502769     1     12    14    15    16
H 1113.64711900 67.03038266 -49.41487902     6     13    0    0    0
H 1113.71169916 64.33583779 -51.22860968     6     13    0    0    0
C 1110.94904023 64.18001985 -48.30704441     2     13    17    18    19
H 1110.48004048 64.91705234 -46.50682403     6     16    0    0    0
H 1109.50226783 65.07590604 -49.47865454     6     16    0    0    0
C 1110.60742398 61.35941424 -47.91986835     2     16    20   21   22
H 1110.75712127 60.27616395 -49.75723515     6     19    0    0    0
H 1112.08227726 60.61917013 -46.60579190     6     19    0    0    0
C 1108.15913845 60.59213688 -46.87686374     2     19   23   24   25
H 1107.82961361 61.84774789 -45.29565471     6    22    0    0    0
H 1106.70131426 60.97123088 -48.31034623     6    22    0    0    0
C 1107.95854058 57.81676254 -46.09088571     2    22   26   27   28
H 1108.40063736 56.81277749 -47.81943176     6    25    0    0    0
H 1109.22973411 57.30939658 -44.71156082     6    25    0    0    0
C 1105.09548458 57.28787148 -45.33088536     2    25   29   30   31
H 1104.80078357 58.69477859 -43.89595486     6    28    0    0    0
H 1103.71884892 57.70568230 -46.81865920     6    28    0    0    0
C 1104.86612091 54.52890448 -44.63473012     2    28   32   33   34
H 1104.93514588 53.65755542 -46.44105152     6    31    0    0    0
H 1106.38932197 54.07843774 -43.30662898     6    31    0    0    0
C 1102.41426664 53.77691825 -43.33726580     2    31   35   36   37
H 1102.20256072 55.08723032 -41.72812675     6    34    0    0    0
H 1100.77639365 53.86626588 -44.69369896     6    34    0    0    0
C 1102.62423306 51.20650069 -41.91990017     2    34   38   39   40
H 1102.88016687 49.90144398 -43.48494494     6    37    0    0    0
H 1104.35075724 51.11590828 -40.70270455     6    37    0    0    0
C 1100.15315315 50.55686545 -40.53124442     2    37   41   42   43
H 1099.69763808 52.02220336 -39.10224944     6    40    0    0    0
H 1098.55414656 50.82701114 -41.79170745     6    40    0    0    0
C 1100.33699463 47.93531452 -39.28005907     2    40   44   45   46
H 1100.66471733 46.45157076 -40.72497023     6    43    0    0    0
H 1101.99339135 47.85968920 -37.98323973     6    43    0    0    0
C 1098.03685112 47.46443202 -37.66171552     1    43   47   48   49
H 1097.86109979 48.85703349 -36.24320362     6    46    0    0    0
H 1098.29384757 45.69371102 -36.55388392     6    46    0    0    0
H 1096.13900073 47.35702949 -38.56069634     6    46    0    0    0
H 1111.17276764 36.17763745 -52.56289229     6     51    0    0    0
C 1110.99672980 37.91012497 -53.62131585     1     50    52    53    54
H 1112.87261383 38.21750230 -54.39765583     6     51    0    0    0
H 1109.93775899 37.77142238 -55.31179517     6     51    0    0    0
C 1110.12113729 40.28022876 -52.20791224     2     51    55    56    57
H 1110.92189808 42.04032027 -53.17085161     6     54    0    0    0
H 1108.03859983 40.44145714 -52.49137348     6     54    0    0    0
C 1110.98908527 40.25488656 -49.56644683     2     54    58   59   60
H 1113.06933316 40.16343498 -49.53061622     6     57    0    0    0
H 1110.71828381 42.12890930 -48.59739952     6     57    0    0    0
C 1109.77163309 38.13984535 -47.81227416     2     57   61   62   63
H 1107.67916630 38.50162946 -47.66366345     6    60    0    0    0
H 1109.98375741 36.28920143 -48.64422780     6    60    0    0    0
C 1110.88993070 37.99988483 -45.22079744     2    60   64   65   66
H 1112.74253735 37.22548707 -45.34289207     6    63    0    0    0
H 1111.17534259 39.77499325 -44.34518599     6    63    0    0    0
C 1109.35487114 36.50218773 -43.30535930     2    63   67   68   69
H 1110.54324134 36.42138929 -41.62984419     6    66    0    0    0
H 1107.72004339 37.51073407 -42.47133048     6    66    0    0    0
C 1108.77051700 33.71136287 -44.23650613     2    66   70   71   72
H 1107.87726580 33.69744004 -46.12952188     6    69    0    0    0
H 1110.65583746 32.86098995 -44.34403393     6    69    0    0    0
C 1107.19481563 31.95354054 -42.41750079     2    69   73   74   75
H 1108.33370633 31.29322793 -40.85568395     6    72    0    0    0
H 1105.69976499 33.06958032 -41.57001020     6    72    0    0    0
C 1106.22929845 29.66440108 -43.69135347     2    72   76   77   78
H 1105.45420260 30.05747571 -45.51750433     6    75    0    0    0
H 1107.79690511 28.43761847 -44.17499176     6    75    0    0    0
C 1104.25206135 28.31105508 -42.01349710     2    75   79   80   81
H 1105.01130995 27.98587335 -40.10487999     6    78    0    0    0
H 1102.68376387 29.67688672 -41.67814146     6    78    0    0    0
C 1103.41750951 25.85394249 -43.43051236     2    78   82   83   84
H 1102.67064711 26.59352092 -45.14217710     6    81    0    0    0
H 1105.06905768 24.67264068 -43.91294080     6    81    0    0    0
C 1101.27511409 24.54184585 -42.14888729     1    81   85   86   87
H 1099.91471478 23.41948532 -43.15507186     6    84    0    0    0
H 1100.06657509 26.05049515 -41.20913998     6    84    0    0    0
H 1101.77499512 23.39315886 -40.49347395     6    84    0    0    0
H 1125.48853306 63.94771291 -36.78899243     6     89    0    0    0
C 1125.51576735 61.92376518 -36.08887494     1     88    90    91    92
H 1125.30982781 60.69652437 -37.75044981     6     89    0    0    0
H 1127.36536720 61.45308387 -35.36388160     6     89    0    0    0
C 1123.37958399 61.65456510 -34.10561144     2     89    93    94    95
H 1123.99322652 62.47626181 -32.35567819     6     92    0    0    0
H 1121.73030819 62.49136063 -34.88841031     6     92    0    0    0
C 1122.74338063 58.83390452 -33.72054942     2     92    96   97   98
H 1122.09366698 58.12918792 -35.57711128     6     95    0    0    0
H 1124.50642969 57.90373820 -33.24476715     6     95    0    0    0
C 1120.88418872 58.19285906 -31.67072242     2     95   99   100   101
H 1121.98459341 58.50438923 -29.95275367     6    98    0    0    0
H 1119.19444895 59.36396788 -31.70826671     6    98    0    0    0
C 1119.90974530 55.44368861 -31.90383625     2    98   102   103   104
H 1118.48716881 55.15139773 -33.37763947     6    101    0    0    0
H 1121.38228119 54.10504521 -32.27185662     6    101    0    0    0
C 1118.73843670 54.49742280 -29.31786572     2    101   105   106   107
H 1119.96714465 54.75471711 -27.57929882     6    104    0    0    0
H 1117.04379311 55.73828472 -29.01754559     6    104    0    0    0
C 1117.96166278 51.78246683 -29.46032273     2    104   108   109   110
H 1117.53664703 51.32041867 -31.38858847     6    107    0    0    0
H 1119.66491072 50.60610721 -28.97137368     6    107    0    0    0
C 1115.65324131 51.13725118 -27.82249373     2    107   111   112   113
H 1116.38298853 51.27916736 -25.86780234     6    110    0    0    0
H 1114.11887257 52.40056025 -27.93161546     6    110    0    0    0
C 1114.87166610 48.32610773 -28.05989052     2    110   114   115   116
H 1114.40245053 48.00623243 -30.08383792     6    113    0    0    0
H 1116.45444639 47.01332296 -27.74093052     6    113    0    0    0
C 1112.61329484 47.39270458 -26.44403163     2    113   117   118   119
H 1113.02592316 47.42597433 -24.53523452     6    116    0    0    0
H 1110.92542931 48.62043861 -26.84711591     6    116    0    0    0
C 1111.84517210 44.68924148 -26.68842642     2    116   120   121   122
H 1110.22090616 44.18097681 -25.55592261     6    119    0    0    0
H 1111.21729969 44.35738371 -28.62615194     6    119    0    0    0
C 1113.81475488 42.72970533 -25.89588085     1    119   123   124   125
H 1113.29306680 41.01312182 -26.88700906     6    122    0    0    0
H 1113.83622419 42.41755401 -23.91473841     6    122    0    0    0
H 1115.61002682 43.24224954 -26.40124803     6    122    0    0    0
H 1139.75101520 48.03892910 -41.74691533     6     127    0    0    0
C 1139.15770194 47.26636048 -43.53506891     1     126    128    129    130
H 1140.73038308 46.42519462 -44.50277930     6     127    0    0    0
H 1138.01328469 45.61838323 -43.41005660     6     127    0    0    0
C 1137.86685344 49.56412267 -44.91652848     2     127    131    132    133
H 1136.44780035 50.64741131 -43.84378147     6     130    0    0    0
H 1139.22775097 51.02561594 -45.24660398     6     130    0    0    0
C 1136.68996862 48.62119982 -47.43991724     2     130    134   135   136
H 1138.01637708 47.77308235 -48.69043491     6     133    0    0    0
H 1135.46949911 47.00020665 -47.25198840     6     133    0    0    0
C 1135.46367820 50.76205182 -49.02861079     2     133   137   138   139
H 1133.94955103 51.77146075 -48.22565594     6    136    0    0    0
H 1136.75484995 52.12280684 -49.58470949     6    136    0    0    0
C 1134.61784295 49.47049282 -51.48542803     2    136   140   141   142
H 1136.12630828 48.32827042 -52.39609531     6    139    0    0    0
H 1133.04003129 48.08330596 -51.21093475     6    139    0    0    0
C 1133.69832144 51.39918535 -53.66145457     2    139   143   144   145
H 1132.22819505 52.65921162 -52.76756576     6    142    0    0    0
H 1135.37172538 52.65226289 -54.00082970     6    142    0    0    0
C 1132.96507370 49.78930544 -55.92349040     2    142   146   147   148
H 1134.53915876 48.77140534 -56.68245794     6    145    0    0    0
H 1131.72584021 48.30847210 -55.37615323     6    145    0    0    0
C 1131.67987222 51.51208395 -57.90710521     2    145   149   150   151
H 1130.06793143 52.54623723 -57.10248855     6    148    0    0    0
H 1133.11103174 52.87349311 -58.65255204     6    148    0    0    0
C 1130.32632890 50.23626515 -60.20765047     2    148   152   153   154
H 1131.70962405 49.05507809 -61.35821068     6    151    0    0    0
H 1128.70628433 48.99156746 -59.75857688     6    151    0    0    0
C 1129.73274157 52.25999027 -62.23557085     2    151   155   156   157
H 1128.90545637 53.90191650 -61.47785659     6    154    0    0    0
H 1131.59115225 52.97031690 -63.02291285     6    154    0    0    0
C 1128.25673045 51.20033217 -64.40768810     2    154   158   159   160
H 1129.43681402 49.71538348 -65.22929277     6    157    0    0    0
H 1126.56293874 50.20834717 -63.76057781     6    157    0    0    0
C 1127.66255105 53.00306282 -66.54416378     1    157   161   162   163
H 1125.79307084 52.72823761 -67.53035679     6    160    0    0    0
H 1129.14842760 53.59546069 -67.80261547     6    160    0    0    0
H 1127.17812724 54.86030638 -65.67420202     6    160    0    0    0
H 1129.66880126 34.84566450 -23.68582406     6     165    0    0    0
C 1131.48231408 33.89602870 -23.61885692     1     164    166    167    168
H 1132.73064498 34.82510748 -22.34831491     6     165    0    0    0
H 1131.46134564 31.91489701 -22.92087889     6     165    0    0    0
C 1132.45983107 34.21069085 -26.28512060     2     165    169    170    171
H 1130.91379070 33.33809765 -27.29364334     6     168    0    0    0
H 1132.45469168 36.18177165 -27.03533889     6     168    0    0    0
C 1134.83640534 32.62910406 -26.79367793     2     168    172   173   174
H 1136.00619701 32.63430034 -25.12384679     6     171    0    0    0
H 1133.97772249 30.76364953 -26.94560574     6     171    0    0    0
C 1136.18831973 33.55066066 -29.30865513     2     171   175   176   177
H 1134.96722798 33.89967611 -30.79250297     6    174    0    0    0
H 1137.30302533 35.44412653 -28.72845185     6    174    0    0    0
C 1137.94793742 31.51213215 -30.21207813     2    174   178   179   180
H 1139.27372576 30.79851739 -28.91892806     6    177    0    0    0
H 1136.94301986 29.71181482 -30.55881026     6    177    0    0    0
C 1139.44642285 32.48635045 -32.48775212     2    177   181   182   183
H 1138.29707558 32.09323616 -34.09552561     6    180    0    0    0
H 1139.50900800 34.62724380 -32.54722872     6    180    0    0    0
C 1142.01809035 31.21409668 -33.07788064     2    180   184   185   186
H 1143.06056186 31.30815188 -31.30459398     6    183    0    0    0
H 1141.92750548 29.24414692 -33.48524134     6    183    0    0    0
C 1143.44280628 32.59503071 -35.12868415     2    183   187   188   189
H 1142.49364573 32.22915998 -36.91237144     6    186    0    0    0
H 1143.54639379 34.54969353 -34.93169162     6    186    0    0    0
C 1146.18238566 31.52742508 -35.45699678     2    186   190   191   192
H 1147.24023495 31.70720784 -33.75265981     6    189    0    0    0
H 1146.44764537 29.54715187 -35.64864594     6    189    0    0    0
C 1147.41407279 33.04262730 -37.64891071     2    189   193   194   195
H 1145.96345352 33.21022617 -39.10652450     6    192    0    0    0
H 1147.65671656 34.98129017 -37.17768360     6    192    0    0    0
C 1149.76626057 31.70169504 -38.56787402     2    192   196   197   198
H 1150.90453868 31.52220138 -36.84494658     6    195    0    0    0
H 1149.49800308 29.73449216 -39.12685630     6    195    0    0    0
C 1151.22234880 33.21181659 -40.52792220     1    195   199   200   201
H 1152.61472966 32.01850241 -41.26007684     6    198    0    0    0
H 1152.30268007 34.69620306 -39.38042189     6    198    0    0    0
H 1149.79953787 34.00366621 -41.94230164     6    198    0    0    0
H 1130.59675740 28.91752018 -34.05373295     6     203    0    0    0
C 1132.60894466 28.19112427 -33.94630365     1     202    204    205    206
H 1133.12648558 28.12543552 -36.05894514     6     203    0    0    0
H 1133.77570652 29.69394443 -32.92505842     6     203    0    0    0
C 1132.92832643 25.48839828 -32.72790838     2     203    207    208    209
H 1134.84590555 25.25361233 -31.94785124     6     206    0    0    0
H 1131.72237003 25.37084111 -31.15269150     6     206    0    0    0
C 1132.25292789 23.11135804 -34.24600788     2     206    210   211   212
H 1132.30035888 21.62630485 -32.85983882     6     209    0    0    0
H 1130.39113965 23.51390308 -34.80711751     6     209    0    0    0
C 1134.13988257 22.43664801 -36.31865223     2     209   213   214   215
H 1133.80928935 23.99326652 -37.70983559     6    212    0    0    0
H 1136.01300136 22.57996097 -35.35258237     6    212    0    0    0
C 1133.44916830 19.90373278 -37.51470728     2    212   216   217   218
H 1133.63160889 18.36683078 -36.26153633     6    215    0    0    0
H 1131.45144645 19.84120747 -38.01751801     6    215    0    0    0
C 1134.88772530 19.31102283 -39.87643029     2    215   219   220   221
H 1135.03531876 20.84048858 -41.17913540     6    218    0    0    0
H 1136.87100343 18.91713437 -39.58096955     6    218    0    0    0
C 1133.95286080 16.92369532 -41.14658501     2    218   222   223   224
H 1133.92396674 15.33183955 -39.87759003     6    221    0    0    0
H 1131.89841642 17.12938713 -41.19841066     6    221    0    0    0
C 1135.12019533 16.42574072 -43.81584444     2    221   225   226   227
H 1135.29294096 18.37114306 -44.60162431     6    224    0    0    0
H 1137.15025059 15.73333762 -43.49965438     6    224    0    0    0
C 1133.79014504 14.53501793 -45.53181198     2    224   228   229   230
H 1133.58567301 12.79818634 -44.40640756     6    227    0    0    0
H 1131.84670408 15.17418785 -45.92328873     6    227    0    0    0
C 1135.46471630 13.96962484 -47.94797953     2    227   231   232   233
H 1135.41169174 15.67557785 -49.08280441     6    230    0    0    0
H 1137.47700186 14.01635991 -47.47842572     6    230    0    0    0
C 1134.77104681 11.76230533 -49.67538495     2    230   234   235   236
H 1134.39254360 9.99199038 -48.57649106     6    233    0    0    0
H 1133.23981076 12.31287037 -50.91603295     6    233    0    0    0
C 1136.75472962 11.45138416 -51.76757563     1    233   237   238   239
H 1138.71428267 11.02015556 -50.96069376     6    236    0    0    0
H 1136.93767878 13.04755063 -53.03871627     6    236    0    0    0
H 1136.37654376 9.80543788 -52.88780319     6    236    0    0    0
H 1111.32288397 26.50637424 -33.55631308     6     241    0    0    0
C 1110.96369033 28.39421565 -34.54024342     1     240    242    243    244
H 1112.53564392 29.62306610 -34.34241940     6     241    0    0    0
H 1110.75185966 27.83197935 -36.49421048     6     241    0    0    0
C 1108.64730621 29.79166612 -33.64593404     2     241    245    246    247
H 1108.96167559 30.70463584 -31.77774983     6     244    0    0    0
H 1108.24492870 31.42429250 -34.90982911     6     244    0    0    0
C 1106.20124805 28.07583609 -33.55625928     2     244    248   249   250
H 1105.90301916 27.30151631 -35.35952130     6     247    0    0    0
H 1106.49348913 26.59448292 -32.12442371     6     247    0    0    0
C 1103.80500715 29.35453891 -32.56385854     2     247   251   252   253
H 1104.62232777 30.29902354 -31.05995617     6    250    0    0    0
H 1103.23143482 30.89831197 -33.85741563     6    250    0    0    0
C 1101.51781690 27.51282211 -31.82861836     2    250   254   255   256
H 1102.10854338 26.20115929 -30.38539962     6    253    0    0    0
H 1099.91906684 28.56199654 -30.92151220     6    253    0    0    0
C 1100.52624109 25.91669909 -33.93967666     2    253   257   258   259
H 1099.60662329 26.94158342 -35.58637699     6    256    0    0    0
H 1102.10769787 24.85205019 -34.60351305     6    256    0    0    0
C 1098.68323166 23.93794395 -33.06098372     2    256   260   261   262
H 1099.21218294 23.10774806 -31.18531123     6    259    0    0    0
H 1096.77897761 24.62853547 -32.57790520     6    259    0    0    0
C 1098.16138344 21.86560131 -35.06398540     2    259   263   264   265
H 1097.23308252 22.64791804 -36.73025993     6    262    0    0    0
H 1099.93234235 21.00460915 -35.64814662     6    262    0    0    0
C 1096.69895043 19.68096462 -33.89363002     2    262   266   267   268
H 1097.55889675 19.12124082 -32.12361178     6    265    0    0    0
H 1094.95493622 20.43149012 -33.24126079     6    265    0    0    0
C 1096.53611672 17.45958506 -35.96648792     2    265   269   270   271
H 1095.15437301 18.01842350 -37.35293396     6    268    0    0    0
H 1098.31404003 17.26569039 -36.97267179     6    268    0    0    0
C 1095.42701474 15.03535244 -34.88743950     2    268   272   273   274
H 1096.03872683 14.67275425 -32.89411271     6    271    0    0    0
H 1093.46885411 15.44734882 -35.31126430     6    271    0    0    0
C 1096.20252102 12.89526089 -36.54636292     1    271   275   276   277
H 1096.31475576 13.37590421 -38.58314165     6    274    0    0    0
H 1095.09281927 11.16016885 -36.45021808     6    274    0    0    0
H 1098.20677358 12.47301602 -36.06446011     6    274    0    0    0
H 1128.70524237 45.61761510 -30.48765035     6     279    0    0    0
C 1127.28900912 44.14843049 -30.69195891     1     278    280    281    282
H 1125.81422567 44.49403111 -29.38935716     6     279    0    0    0
H 1126.29298515 44.35720564 -32.48871188     6     279    0    0    0
C 1128.31927578 41.60922817 -30.12972882     2     279    283    284    285
H 1129.78695645 41.15633934 -31.56382209     6     282    0    0    0
H 1129.03109455 41.80727313 -28.25174211     6     282    0    0    0
C 1126.27441650 39.59217072 -30.43579767     2     282    286   287   288
H 1125.08514969 39.41508202 -28.84592791     6     285    0    0    0
H 1124.97556124 40.11032255 -31.79557385     6     285    0    0    0
C 1127.39425791 37.03046948 -31.25121800     2     285   289   290   291
H 1128.77582413 37.25042786 -32.89662803     6    288    0    0    0
H 1128.46299859 36.45021064 -29.60904002     6    288    0    0    0
C 1125.45953121 34.94478180 -31.96603776     2    288   292   293   294
H 1124.15792101 34.66479260 -30.36498171     6    291    0    0    0
H 1124.47535228 35.83535280 -33.57839670     6    291    0    0    0
C 1126.41594078 32.34497543 -32.87104880     2    291   295   296   297
H 1126.96712118 32.20105198 -34.85549220     6    294    0    0    0
H 1127.92440584 31.95078136 -31.60134637     6    294    0    0    0
C 1124.35908341 30.33034390 -32.44204192     2    294   298   299   300

   17   -1830.5127054794      2.59E-09 Convergence criterion met
 Total energy in the final basis set = -1828.32075475
 Total job time:  16.59s(wall), 30.13s(cpu)
        *  Thank you very much for using Q-Chem.  Have a nice day.  *

User input: 2 of 2

                  Welcome to Q-Chem
     A Quantum Leap Into The Future Of Chemistry

 Q-Chem 5.4 (devel), Q-Chem, Inc., Pleasanton, CA (2021)

 E. Epifanovsky,  A. T. B. Gilbert,  Xintian Feng,  Joonho Lee,  Yuezhi Mao,
 N. Mardirossian,  P. Pokhilko,  A. White,  M. Wormit,  M. P. Coons,
 A. L. Dempwolff,  Zhengting Gan,  D. Hait,  P. R. Horn,  L. D. Jacobson,
 I. Kaliman,  J. Kussmann,  A. W. Lange,  Ka Un Lao,  D. S. Levine,  Jie Liu,
 S. C. McKenzie,  A. F. Morrison,  K. Nanda,  F. Plasser,  D. R. Rehn,
 M. L. Vidal,  Zhi-Qiang You,  Ying Zhu,  B. Alam,  B. Albrecht,
 A. Aldossary,  E. Alguire,  J. H. Andersen,  D. Barton,  K. Begam,  A. Behn,
 Y. A. Bernard,  E. J. Berquist,  H. Burton,  A. Carreras,  K. Carter-Fenk,
 R. Chakraborty,  A. D. Chien,  K. D. Closser,  V. Cofer-Shabica,
 S. Dasgupta,  Jia Deng,  M. de Wergifosse,  M. Diedenhofen,  Hainam Do,
 S. Ehlert,  Po-Tung Fang,  S. Fatehi,  Qingguo Feng,  T. Friedhoff,
 J. Gayvert,  Qinghui Ge,  G. Gidofalvi,  M. Goldey,  J. Gomes,
 C. Gonzalez-Espinoza,  S. Gulania,  A. Gunina,  M. W. D. Hanson-Heine,
 P. H. P. Harbach,  A. W. Hauser,  M. F. Herbst,  M. Hernandez Vera,
 M. Hodecker,  Z. C. Holden,  S. Houck,  Xunkun Huang,  Kerwin Hui,
 B. C. Huynh,  M. Ivanov,  Hyunjun Ji,  Hanjie Jiang,  B. Kaduk,  S. Kaehler,
 K. Khistyaev,  Jaehoon Kim,  P. Klunzinger,  Z. Koczor-Benda,
 Joong Hoon Koh,  D. Kosenkov,  L. Koulias,  T. Kowalczyk,  C. M. Krauter,
 K. Kue,  A. Kunitsa,  T. Kus,  A. Landau,  K. V. Lawler,  D. Lefrancois,
 S. Lehtola,  Rain Li,  Yi-Pei Li,  Jiashu Liang,  M. Liebenthal,
 Hung-Hsuan Lin,  You-Sheng Lin,  Fenglai Liu,  Kuan-Yu Liu,
 M. Loipersberger,  A. Luenser,  A. Manjanath,  P. Manohar,  E. Mansoor,
 S. F. Manzer,  Shan-Ping Mao,  A. V. Marenich,  T. Markovich,  S. Mason,
 S. A. Maurer,  P. F. McLaughlin,  M. F. S. J. Menger,  J.-M. Mewes,
 S. A. Mewes,  P. Morgante,  J. W. Mullinax,  K. J. Oosterbaan,  G. Paran,
 Alexander C. Paul,  Suranjan K. Paul,  F. Pavosevic,  Zheng Pei,  S. Prager,
 E. I. Proynov,  E. Ramos,  B. Rana,  A. E. Rask,  A. Rettig,  R. M. Richard,
 F. Rob,  E. Rossomme,  T. Scheele,  M. Scheurer,  M. Schneider,
 N. Sergueev,  S. M. Sharada,  W. Skomorowski,  D. W. Small,  C. J. Stein,
 Yu-Chuan Su,  E. J. Sundstrom,  Zhen Tao,  J. Thirman,  T. Tsuchimochi,
 N. M. Tubman,  S. P. Veccham,  O. Vydrov,  J. Wenzel,  J. Witte,  A. Yamada,
 Kun Yao,  S. Yeganeh,  S. R. Yost,  A. Zech,  Igor Ying Zhang,  Xing Zhang,
 Yu Zhang,  D. Zuev,  A. Aspuru-Guzik,  A. T. Bell,  N. A. Besley,
 K. B. Bravaya,  B. R. Brooks,  D. Casanova,  Jeng-Da Chai,  S. Coriani,
 C. J. Cramer,  A. E. DePrince, III,  R. A. DiStasio Jr.,  A. Dreuw,
 B. D. Dunietz,  T. R. Furlani,  W. A. Goddard III,  S. Grimme,
 S. Hammes-Schiffer,  T. Head-Gordon,  W. J. Hehre,  Chao-Ping Hsu,
 T.-C. Jagau,  Yousung Jung,  A. Klamt,  Jing Kong,  D. S. Lambrecht,
 WanZhen Liang,  N. J. Mayhall,  C. W. McCurdy,  J. B. Neaton,
 C. Ochsenfeld,  J. A. Parkhill,  R. Peverati,  V. A. Rassolov,  Yihan Shao,
 L. V. Slipchenko,  T. Stauch,  R. P. Steele,  J. E. Subotnik,
 A. J. W. Thom,  A. Tkatchenko,  D. G. Truhlar,  T. Van Voorhis,
 T. A. Wesolowski,  K. B. Whaley,  H. L. Woodcock III,  P. M. Zimmerman,
 S. Faraji,  P. M. W. Gill,  M. Head-Gordon,  J. M. Herbert,  A. I. Krylov

 Additional authors for Version 5.4.1:
 S. Kotaru,  Shaozhi Li,  Xiangyuan Li,  F. Matz,  A. Molle,  Haisheng Ren,
 Yingli Su,  Hung-Yi Tsai,  C. Utku,  Fang Wang

 Contributors to earlier versions of Q-Chem not listed above:
 R. D. Adamson,  B. Austin,  R. Baer,  J. Baker,  G. J. O. Beran,
 K. Brandhorst,  S. T. Brown,  E. F. C. Byrd,  A. K. Chakraborty,
 G. K. L. Chan,  Chun-Min Chang,  Yunqing Chen,  C.-L. Cheng,
 Siu Hung Chien,  D. M. Chipman,  D. L. Crittenden,  H. Dachsel,
 R. J. Doerksen,  A. D. Dutoi,  R. G. Edgar,  J. Fosso-Tande,
 L. Fusti-Molnar,  D. Ghosh,  A. Ghysels,  A. Golubeva-Zadorozhnaya,
 J. Gonthier,  M. S. Gordon,  S. R. Gwaltney,  G. Hawkins,  J. E. Herr,
 A. Heyden,  S. Hirata,  E. G. Hohenstein,  G. Kedziora,  F. J. Keil,
 C. Kelley,  Jihan Kim,  R. A. King,  R. Z. Khaliullin,  P. P. Korambath,
 W. Kurlancheek,  A. Laurent,  A. M. Lee,  M. S. Lee,  S. V. Levchenko,
 Ching Yeh Lin,  D. Liotard,  E. Livshits,  R. C. Lochan,  I. Lotan,
 L. A. Martinez-Martinez,  P. E. Maslen,  N. Nair,  D. P. O'Neill,
 D. Neuhauser,  E. Neuscamman,  C. M. Oana,  R. Olivares-Amaya,  R. Olson,
 T. M. Perrine,  B. Peters,  P. A. Pieniazek,  A. Prociuk,  Y. M. Rhee,
 J. Ritchie,  M. A. Rohrdanz,  E. Rosta,  N. J. Russ,  H. F. Schaefer III,
 M. W. Schmidt,  N. E. Schultz,  S. Sharma,  N. Shenvi,  C. D. Sherrill,
 A. C. Simmonett,  A. Sodt,  T. Stein,  D. Stuck,  K. S. Thanthiriwatte,
 V. Vanovschi,  L. Vogt,  Tao Wang,  A. Warshel,  M. A. Watson,
 C. F. Williams,  Q. Wu,  X. Xu,  Jun Yang,  W. Zhang,  Yan Zhao

 Please cite Q-Chem as follows:
 Y. Shao et al., Mol. Phys. 113, 184-215 (2015)
 DOI: 10.1080/00268976.2014.952696

 Q-Chem 5.4.1 for Intel X86 EM64T Linux

 Parts of Q-Chem use Armadillo 9.900.5 (Nocturnal Misbehaviour).
 http://arma.sourceforge.net/

 Q-Chem begins on Wed Jun 22 16:41:40 2022

 Host: p09r14n13.grace.hpc.yale.internal
0

     Scratch files written to /home/tl686/scratch60/qchem_dev/scratch/qchem247099//
 Processing $rem in /home/tl686/qchem_dev/qchem/config/preferences:
 Processing $rem in /home/tl686/.qchemrc:
Applying user defined connections for MM calculations
The previous job contains 0 fragments, simply inherited here

 Checking the input file for inconsistencies... 	...done.

--------------------------------------------------------------
User input:
--------------------------------------------------------------

$molecule
READ
$end

$qm_atoms
1:11
$end

$force_field_params
NumAtomTypes 3
AtomType -1   0.0238     3.11   0.2868
AtomType -2   0.07124    3.30   0.6597
AtomType -3  -0.0760     3.09   0.1434
$end

$rem
     JOBTYPE  freq
     METHOD   bp86
     BASIS    def2-msvp
     MAX_SCF_CYCLES   800
     INPUT_BOHR TRUE
     SYM_IGNORE TRUE
     SCF_GUESS     read
     user_connect            true
     qm_mm_interface         ONIOM
     force_field             oplsaa
$end

--------------------------------------------------------------

    3   -1830.5127054785      5.58E-09 Convergence criterion met
 Total energy in the final basis set = -1828.32075475

                    Orbital Energies (a.u.)
 --------------------------------------------------------------

 Alpha MOs
 -- Occupied --
******** -29.6365 -25.5958 -25.5848 -25.5787 -18.8848 -18.8833 -18.8798
-18.8788 -18.8754 -10.0556 -10.0541 -10.0502 -10.0460 -10.0433  -3.3228
 -2.1595  -2.1367  -2.1230  -1.0624  -1.0587  -1.0571  -1.0547  -1.0160
 -0.5826  -0.5293  -0.5206  -0.5203  -0.5134  -0.4588  -0.4490  -0.4409
 -0.4339  -0.4296  -0.4278  -0.4277  -0.4229  -0.4191  -0.4162  -0.4069
 -0.3999  -0.3911  -0.3862  -0.3789  -0.2823  -0.2726  -0.2372  -0.2243

          Ground-State Mulliken Net Atomic Charges

     Atom                 Charge (a.u.)
  ----------------------------------------
      1 Fe                   -0.446571
      2 C                     0.212118
      3 C                     0.167406
      4 C                     0.211882
      5 C                     0.236559
      6 C                     0.206717
      7 O                    -0.165868
      8 O                    -0.117394
      9 O                    -0.099971
     10 O                    -0.095342
     11 O                    -0.109535
  ----------------------------------------
  Sum of atomic charges =     0.000000

                    Cartesian Multipole Moments
 -----------------------------------------------------------------
    Charge (ESU x 10^10)
                -0.0000
    Dipole Moment (Debye)
         X       0.4854337466      Y      -0.3533526307      Z       0.3398179265
       Tot       0.6899132026
    Quadrupole Moments (Debye-Ang)
        XX     504.1592     XY    -197.1974     YY     -84.6590
        XZ     185.7180     YZ      18.5969     ZZ     -91.5306
