 Q-Chem 5.4 (devel), Q-Chem, Inc., Pleasanton, CA (2021)
 Q-Chem 5.4.1 for Intel X86 EM64T Linux

User input:
--------------------------------------------------------------
$molecule
0   1
 Fe 110.24177212 -7.02361531 37.47481051    -1  0   0   0   0
C 112.05827589 -9.02963172 39.66408234    -2  0   0   0   0
C 108.25625109 -4.84895170 35.82058225    -2  0   0   0   0
C 112.23449312 -4.31320509 38.47619761    -2  0   0   0   0
C 111.55346633 -8.45741921 34.64817587    -2  0   0   0   0
C 106.93717570 -8.48797363 38.80382965    -2  0   0   0   0
O 113.11548922 -10.35043690 41.00647180    -3  0   0   0   0
O 106.72949270 -3.67619720 34.74812574    -3  0   0   0   0
O 113.53313596 -2.64857367 39.02652725    -3  0   0   0   0
O 112.46587538 -8.85589196 32.65480727    -3  0   0   0   0
O 105.21372996 -9.05994167 39.50478704    -3  0   0   0   0
H 138.69993870 -3.72787033 47.35402616      6     13    0    0    0
C 139.19905530 -5.18544001 48.71864923     1     12    14    15    16
H 140.96166646 -4.52263435 49.25232927     6     13    0    0    0
H 137.98847439 -4.83861409 50.40001522     6     13    0    0    0
C 139.04384803 -7.85546350 47.69666465     2     13    17    18    19
H 140.65896916 -8.03528230 46.44734536     6     16    0    0    0
H 139.00011207 -9.18154429 49.28995700     6     16    0    0    0
C 136.49908748 -8.31513077 46.27180352     2     16    20   21   22
H 134.77696134 -8.16581202 47.56349560     6     19    0    0    0
H 136.11011072 -6.65553671 45.10218617     6     19    0    0    0
C 136.22290128 -10.89037642 44.92184864     2     19   23   24   25
H 137.31777932 -10.97092467 43.20982496     6    22    0    0    0
H 136.89154004 -12.43511625 46.07296952     6    22    0    0    0
C 133.55037838 -11.39374059 44.26215813     2    22   26   27   28
H 132.43507694 -11.59936795 46.02149592     6    25    0    0    0
H 132.86882784 -9.81093523 43.34489317     6    25    0    0    0
C 133.21294893 -13.95619890 42.92371607     2    25   29   30   31
H 134.59241449 -13.83791770 41.46770517     6    28    0    0    0
H 133.88818688 -15.38367066 44.14592980     6    28    0    0    0
C 130.48640557 -14.23800314 41.94831643     2    28   32   33   34
H 129.35618730 -13.96257308 43.60286249     6    31    0    0    0
H 130.23417802 -12.69433001 40.68288330     6    31    0    0    0
C 129.92964566 -16.89722685 40.96250849     2    31   35   36   37
H 131.53071581 -17.63207744 39.80430314     6    34    0    0    0
H 129.65963474 -18.09505467 42.72429057     6    34    0    0    0
C 127.33698949 -16.94145289 39.75170132     2    34   38   39   40
H 125.81732627 -16.52462976 41.28169634     6    37    0    0    0
H 127.13624666 -15.79598327 38.17635873     6    37    0    0    0
C 126.66485337 -19.69989708 38.97276380     2    37   41   42   43
H 128.20453612 -20.40399474 37.78192292     6    40    0    0    0
H 126.64246899 -21.05749912 40.54908364     6    40    0    0    0
C 124.21400701 -20.10189699 37.56076134     2    40   44   45   46
H 122.57372747 -20.34391380 38.89541268     6    43    0    0    0
H 123.96518856 -18.36928349 36.45582021     6    43    0    0    0
C 124.24126106 -22.43098247 35.85396158     1    43   47   48   49
H 125.69580532 -22.11718426 34.44266797     6    46    0    0    0
H 122.49194374 -22.82605551 34.86001677     6    46    0    0    0
H 124.61530728 -23.93434144 37.08417312     6    46    0    0    0
H 116.17102991 -17.58711752 37.18463237     6     51    0    0    0
C 116.08199090 -15.63466304 36.87269985     1     50    52    53    54
H 114.15099263 -15.48531798 36.34539759     6     51    0    0    0
H 116.36134037 -14.76586489 38.73442626     6     51    0    0    0
C 117.75794024 -14.77053324 34.71332336     2     51    55    56    57
H 117.59040528 -12.83323020 34.09700051     6     54    0    0    0
H 119.69640520 -15.00523069 35.27057090     6     54    0    0    0
C 117.36633563 -16.32807126 32.33532511     2     54    58   59   60
H 115.35926291 -16.80467694 32.02275832     6     57    0    0    0
H 117.95005255 -15.21300384 30.70063950     6     57    0    0    0
C 118.74423700 -18.81831898 32.25630902     2     57   61   62   63
H 120.76656090 -18.49995302 32.56102823     6    60    0    0    0
H 118.27082100 -20.03338147 33.84618049     6    60    0    0    0
C 119.21979674 -19.84932771 29.47426447     2    60   64   65   66
H 117.33607659 -20.26560048 28.43635035     6    63    0    0    0
H 120.08586610 -18.47475460 28.21973940     6    63    0    0    0
C 120.66729103 -22.37431270 29.09680670     2    63   67   68   69
H 121.15455360 -22.93648465 27.10714757     6    66    0    0    0
H 122.46990209 -22.35274518 30.13403125     6    66    0    0    0
C 118.96981825 -24.51216852 29.81872392     2    66   70   71   72
H 118.46531700 -24.03621299 31.72303754     6    69    0    0    0
H 117.21647833 -24.40025758 28.95890657     6    69    0    0    0
C 120.45391442 -27.06518185 29.68543723     2    69   73   74   75
H 121.57360508 -27.01212008 28.00010294     6    72    0    0    0
H 122.03013771 -26.83779314 31.11962930     6    72    0    0    0
C 118.79489255 -29.41610015 29.92470167     2    72   76   77   78
H 117.76422212 -29.42794755 31.77540124     6    75    0    0    0
H 117.33946846 -29.44198341 28.49010259     6    75    0    0    0
C 120.23971391 -31.99584931 29.76320271     2    75   79   80   81
H 121.03902522 -32.32217903 27.84951966     6    78    0    0    0
H 121.71421221 -31.69529751 31.23895701     6    78    0    0    0
C 118.59954360 -34.40267297 30.47996510     2    78   82   83   84
H 117.45087551 -34.10439714 32.13739206     6    81    0    0    0
H 117.08659148 -34.93118421 29.04151541     6    81    0    0    0
C 120.14859026 -36.87965764 30.71153059     1    81   85   86   87
H 118.83936023 -38.41208667 31.13337722     6    84    0    0    0
H 121.66884691 -36.90376480 32.12979767     6    84    0    0    0
H 121.01654264 -37.34706035 28.87569265     6    84    0    0    0
H 143.88075065 2.62285521 29.55245426     6     89    0    0    0
C 142.75729541 1.01677392 28.93411530     1     88    90    91    92
H 140.87432778 1.70356700 28.48011110     6     89    0    0    0
H 143.52741913 0.61893496 27.03749745     6     89    0    0    0
C 142.96020407 -1.11691594 30.80908586     2     89    93    94    95
H 145.00795415 -1.18459663 31.22747749     6     92    0    0    0
H 142.02479888 -0.56503143 32.45802826     6     92    0    0    0
C 141.99393771 -3.64381692 29.87325389     2     92    96   97   98
H 139.96885453 -3.51020326 29.38649866     6     95    0    0    0
H 142.89227845 -4.04299718 28.11364238     6     95    0    0    0
C 142.10808130 -5.89345807 31.73672679     2     95   99   100   101
H 144.05357109 -5.86860726 32.42242137     6    98    0    0    0
H 141.09773189 -5.54018532 33.45467528     6    98    0    0    0
C 141.53143744 -8.44155834 30.51544190     2    98   102   103   104
H 139.49087745 -8.73593624 30.25696214     6    101    0    0    0
H 142.28288902 -8.45654836 28.52312255     6    101    0    0    0
C 142.53926582 -10.79272444 32.06152414     2    101   105   106   107
H 144.47711913 -10.40430264 32.59318579     6    104    0    0    0
H 141.43334832 -11.08409141 33.75566321     6    104    0    0    0
C 142.20612698 -13.26585844 30.53776670     2    104   108   109   110
H 140.17476276 -13.61467923 30.45957261     6    107    0    0    0
H 142.77650070 -13.01049261 28.56591905     6    107    0    0    0
C 143.25439712 -15.59784701 31.76659024     2    107   111   112   113
H 145.36298458 -15.30196113 31.97674820     6    110    0    0    0
H 142.59161524 -15.44838520 33.62439686     6    110    0    0    0
C 142.46165273 -18.01310560 30.41683818     2    110   114   115   116
H 140.50324999 -18.06999441 30.51839756     6    113    0    0    0
H 143.05471229 -17.60756780 28.48829050     6    113    0    0    0
C 143.59204896 -20.46422066 31.42888778     2    113   117   118   119
H 145.51160282 -20.37422352 32.00318531     6    116    0    0    0
H 142.66727281 -20.84740632 33.29842372     6    116    0    0    0
C 143.21558010 -22.80856948 29.72252564     2    116   120   121   122
H 143.07753027 -24.41330100 30.82524402     6    119    0    0    0
H 141.25480125 -22.65868892 28.98533571     6    119    0    0    0
C 145.09249588 -22.93804981 27.55694871     1    119   123   124   125
H 144.58965669 -24.52172606 26.19435755     6    122    0    0    0
H 146.84689492 -23.55244823 28.20459485     6    122    0    0    0
H 145.06309572 -21.02565031 26.74083824     6    122    0    0    0
H 130.82453190 18.26824423 17.90660639     6     127    0    0    0
C 131.03556081 16.94115631 19.51021812     1     126    128    129    130
H 131.63978393 15.16950322 18.66848748     6     127    0    0    0
H 132.58255042 17.75898454 20.67175185     6     127    0    0    0
C 128.41564346 16.84465506 20.88118309     2     127    131    132    133
H 127.50328075 18.61558262 21.21786574     6     130    0    0    0
H 127.04704560 15.74135057 19.89012643     6     130    0    0    0
C 128.63619549 15.45726903 23.45430389     2     130    134   135   136
H 128.83655175 13.36647341 23.29982715     6     133    0    0    0
H 130.31686036 15.99008240 24.62436072     6     133    0    0    0
C 126.27297630 15.70744217 25.13983140     2     133   137   138   139
H 126.15578990 17.69875314 25.63638088     6    136    0    0    0
H 124.53627616 15.11644532 23.92089439     6    136    0    0    0
C 126.49477235 13.68991999 27.26406317     2    136   140   141   142
H 126.53184541 11.69134025 26.52596273     6    139    0    0    0
H 128.11118341 14.09294407 28.56409599     6    139    0    0    0
C 124.14307480 13.80393922 29.00478874     2    139   143   144   145
H 124.17293500 15.49098034 30.18414416     6    142    0    0    0
H 122.34419359 13.92140874 27.89672327     6    142    0    0    0
C 124.06232285 11.52150628 30.72144823     2    142   146   147   148
H 123.43644429 9.85721927 29.94623217     6    145    0    0    0
H 125.91022768 10.94412440 31.29541263     6    145    0    0    0
C 122.36770974 11.99371740 33.08521984     2    145   149   150   151
H 122.84107658 13.88709976 34.04372952     6    148    0    0    0
H 120.48567524 12.22027674 32.45923433     6    148    0    0    0
C 122.33905905 9.94754849 35.08788898     2    148   152   153   154
H 121.88365688 8.04853414 34.33879709     6    151    0    0    0
H 124.23764308 9.92126273 35.77562068     6    151    0    0    0
C 120.85823265 10.68422004 37.40156460     2    151   155   156   157
H 121.41392104 9.50009626 39.03576060     6    154    0    0    0
H 121.02947237 12.56513553 37.95693636     6    154    0    0    0
C 117.99894127 10.20822149 37.24599966     2    154   158   159   160
H 116.98529259 10.76866881 35.59824940     6    157    0    0    0
H 117.45015785 8.21736224 36.97301221     6    157    0    0    0
C 116.40304289 11.19156983 39.56652209     1    157   161   162   163
H 114.40880558 10.72651003 39.42335738     6    160    0    0    0
H 116.53266288 13.31055052 39.92021939     6    160    0    0    0
H 117.12943933 10.37538866 41.35626826     6    160    0    0    0
H 125.39374860 -10.53092403 -1.01796066     6     165    0    0    0
C 126.91447693 -9.95747795 0.24263983     1     164    166    167    168
H 126.34626721 -10.99497232 1.90541965     6     165    0    0    0
H 128.81531609 -10.35676090 -0.62066100     6     165    0    0    0
C 126.55080955 -7.09025644 0.68310300     2     165    169    170    171
H 126.76472034 -6.12660820 -1.06405075     6     168    0    0    0
H 124.47161420 -6.58044740 1.05477859     6     168    0    0    0
C 128.40657357 -5.92578582 2.62044986     2     168    172   173   174
H 128.66859658 -7.36722553 4.08056138     6     171    0    0    0
H 130.33314929 -5.97554092 1.57067129     6     171    0    0    0
C 127.90913158 -3.17627745 3.34699557     2     171   175   176   177
H 127.23302241 -2.17095293 1.64723048     6    174    0    0    0
H 126.31732250 -3.06969853 4.61261868     6    174    0    0    0
C 130.06198006 -1.56939629 4.36113582     2    174   178   179   180
H 131.18908598 -2.60946692 5.80100423     6    177    0    0    0
H 131.58067676 -1.26201966 2.93486115     6    177    0    0    0
C 129.12625202 0.90331182 5.70370470     2    177   181   182   183
H 127.91314541 1.82795884 4.34679694     6    180    0    0    0
H 128.00714885 0.44351768 7.39885960     6    180    0    0    0
C 131.22975955 2.70934106 6.38955324     2    180   184   185   186
H 132.38614893 1.86225274 7.90815724     6    183    0    0    0
H 132.56838734 3.05850962 4.91431878     6    183    0    0    0
C 130.28173291 5.40687202 7.35486342     2    183   187   188   189
H 128.99269723 6.21397587 5.94209947     6    186    0    0    0
H 129.09039527 5.11722904 8.99281615     6    186    0    0    0
C 132.45363163 7.34618143 7.80940951     2    186   190   191   192
H 133.39334159 6.83734987 9.53580908     6    189    0    0    0
H 133.98817383 7.54529593 6.39022878     6    189    0    0    0
C 131.34750409 9.98136386 8.13308783     2    189   193   194   195
H 130.36655543 10.31796430 6.40636173     6    192    0    0    0
H 129.91421966 10.13592591 9.42371321     6    192    0    0    0
C 133.39753841 12.05297222 8.48210269     2    192   196   197   198
H 134.27555776 11.84342779 10.34868030     6    195    0    0    0
H 134.88262498 11.81961549 7.06245290     6    195    0    0    0
C 132.20752582 14.64931133 8.33580812     1    195   199   200   201
H 133.57854048 16.27420312 8.11326697     6    198    0    0    0
H 131.26228550 15.05811716 10.11368430     6    198    0    0    0
H 131.14343527 14.70840923 6.67327706     6    198    0    0    0
H 120.05258020 -9.78010352 11.43576297     6     203    0    0    0
C 121.93650334 -9.08381512 10.78996643     1     202    204    205    206
H 121.47547826 -7.38699118 9.73983513     6     203    0    0    0
H 123.02823231 -8.43284276 12.43320754     6     203    0    0    0
C 123.36570562 -10.98098413 9.28365729     2     203    207    208    209
H 124.92102513 -10.18865125 7.99988633     6     206    0    0    0
H 124.46874918 -12.07884403 10.64219576     6     206    0    0    0
C 121.72239989 -12.75369348 7.56811299     2     206    210   211   212
H 122.81898383 -14.41462684 7.17002683     6     209    0    0    0
H 120.36911010 -13.64733002 8.87126088     6     209    0    0    0
C 120.26541815 -11.47078523 5.28633938     2     209   213   214   215
H 119.63274634 -9.72187027 6.03862236     6    212    0    0    0
H 121.66700177 -11.01231878 3.94665611     6    212    0    0    0
C 118.14759379 -13.08010894 4.23837320     2    212   216   217   218
H 117.52387447 -12.36537000 2.42613199     6    215    0    0    0
H 118.73040916 -15.10634254 3.92667112     6    215    0    0    0
C 115.73418646 -13.27444020 5.88224108     2    215   219   220   221
H 116.27559816 -14.61397164 7.45368958     6    218    0    0    0
H 115.61481440 -11.39142977 6.85258918     6    218    0    0    0
C 113.09477110 -14.27270923 4.73549338     2    218   222   223   224
H 112.43370874 -12.78550437 3.45638592     6    221    0    0    0
H 113.64357356 -15.63348265 3.37545879     6    221    0    0    0
C 110.93234989 -14.89719239 6.61595530     2    221   225   226   227
H 111.40957795 -15.75803588 8.32792957     6    224    0    0    0
H 110.06632322 -13.22446986 7.06154297     6    224    0    0    0
C 108.99647638 -16.57535245 5.29995134     2    224   228   229   230
H 108.60280005 -15.75765321 3.51924867     6    227    0    0    0
H 109.81273108 -18.50474599 5.17493216     6    227    0    0    0
C 106.43869749 -16.71160382 6.57124995     2    227   231   232   233
H 106.58972296 -17.17335406 8.69558724     6    230    0    0    0
H 105.58938653 -14.89637062 6.49270895     6    230    0    0    0
C 104.73142083 -18.75389555 5.36589743     2    230   234   235   236
H 104.57894898 -18.54247549 3.40907887     6    233    0    0    0
H 105.24750607 -20.71861134 5.52964937     6    233    0    0    0
C 101.99651528 -18.42612259 6.50507006     1    233   237   238   239
H 100.68715231 -19.68680641 5.55866949     6    236    0    0    0
H 101.09218175 -16.65399697 6.21886294     6    236    0    0    0
H 102.14202783 -18.90502923 8.52799680     6    236    0    0    0
H 128.13423973 -32.03546664 26.83736186     6     241    0    0    0
C 128.04923422 -30.11291662 26.31610918     1     240    242    243    244
H 128.98043298 -30.20972549 24.46713840     6     241    0    0    0
H 126.07757012 -29.66210043 25.92539618     6     241    0    0    0
C 129.55827543 -28.33909301 28.11379750     2     241    245    246    247
H 131.33674500 -29.11491565 28.68748363     6     244    0    0    0
H 130.08860580 -26.64659612 26.95516975     6     244    0    0    0
C 127.95080119 -27.77861606 30.48367459     2     244    248   249   250
H 128.57777256 -26.22847020 31.37536790     6     247    0    0    0
H 126.07060876 -27.03312916 29.63391068     6     247    0    0    0
C 127.71992270 -30.04346893 32.24901552     2     247   251   252   253
H 126.41339839 -29.69202573 33.83516973     6    250    0    0    0
H 126.93467296 -31.61551913 31.08900725     6    250    0    0    0
C 130.31675642 -30.59591809 33.56310108     2    250   254   255   256
H 131.60165763 -31.26877716 32.12179607     6    253    0    0    0
H 130.96350063 -28.79463461 34.45812158     6    253    0    0    0
C 130.07424059 -32.58405644 35.59474353     2    253   257   258   259
H 131.99186995 -33.15393452 36.13432922     6    256    0    0    0
H 129.09573593 -31.81523255 37.15955653     6    256    0    0    0
C 128.67073170 -35.06603965 34.71134500     2    256   260   261   262
H 126.78383735 -34.69671741 34.26697953     6    259    0    0    0
H 129.49374117 -35.75426814 32.98414838     6    259    0    0    0
C 128.65856911 -37.13317991 36.70403213     2    259   263   264   265
H 130.43185428 -38.11623288 37.01875356     6    262    0    0    0
H 128.34509770 -36.22114732 38.54432896     6    262    0    0    0
C 126.54602060 -39.12604303 36.38294148     2    262   266   267   268
H 126.40386217 -40.34249309 38.02365391     6    265    0    0    0
H 124.78776372 -38.17667300 35.96119930     6    265    0    0    0
C 127.33301349 -40.96316608 34.20881875     2    265   269   270   271
H 128.24835145 -39.97309147 32.60351526     6    268    0    0    0
H 128.93346519 -42.22174429 34.87722100     6    268    0    0    0
C 125.30052739 -42.69245852 33.49068937     2    268   272   273   274
H 125.27646793 -44.26790366 34.74316903     6    271    0    0    0
H 123.43075631 -41.93723771 33.59345102     6    271    0    0    0
C 125.65575638 -43.80661641 30.91367086     1    271   275   276   277
H 125.82573044 -42.36654678 29.42365723     6    274    0    0    0
H 123.90441321 -44.81949592 30.56121570     6    274    0    0    0
H 127.08101366 -45.24700823 30.98635617     6    274    0    0    0
H 136.37458511 -11.10347896 17.53822474     6     279    0    0    0
C 134.66497175 -10.17167767 17.71505425     1     278    280    281    282
H 134.24657180 -10.11811471 19.77666556     6     279    0    0    0
H 135.02442318 -8.28857498 17.09638027     6     279    0    0    0
C 132.70937797 -11.39777037 15.92039029     2     279    283    284    285
H 130.96669190 -10.20112426 16.21197428     6     282    0    0    0
H 133.38213197 -11.33204573 14.00094727     6     282    0    0    0
C 131.79881609 -14.08091376 16.57980294     2     282    286   287   288
H 133.35041835 -15.38178091 16.12954762     6     285    0    0    0
H 131.52332776 -14.28052746 18.58278851     6     285    0    0    0
C 129.50207348 -14.89301622 14.93163510     2     285   289   290   291
H 127.92396037 -13.64939670 15.39219542     6    288    0    0    0
H 129.71288718 -14.92989004 13.00565669     6    288    0    0    0
C 128.59638575 -17.63411499 15.53041276     2    288   292   293   294
H 130.18654348 -18.85192940 15.59891745     6    291    0    0    0
H 127.73762852 -17.73715867 17.20744346     6    291    0    0    0
C 126.70311804 -18.67601973 13.52819865     2    291   295   296   297
H 125.22772715 -17.26889374 13.12502535     6    294    0    0    0
H 127.62541209 -18.76606062 11.67076578     6    294    0    0    0
C 125.69997040 -21.26264534 14.18095029     2    294   298   299   300

   18   -1830.4667063315      6.81E-09 Convergence criterion met
 Total energy in the final basis set = -1828.23658360
 Total job time:  15.76s(wall), 28.32s(cpu)
        *  Thank you very much for using Q-Chem.  Have a nice day.  *

User input: 2 of 2

                  Welcome to Q-Chem
     A Quantum Leap Into The Future Of Chemistry

 Q-Chem 5.4 (devel), Q-Chem, Inc., Pleasanton, CA (2021)

 E. Epifanovsky,  A. T. B. Gilbert,  Xintian Feng,  Joonho Lee,  Yuezhi Mao,
 N. Mardirossian,  P. Pokhilko,  A. White,  M. Wormit,  M. P. Coons,
 A. L. Dempwolff,  Zhengting Gan,  D. Hait,  P. R. Horn,  L. D. Jacobson,
 I. Kaliman,  J. Kussmann,  A. W. Lange,  Ka Un Lao,  D. S. Levine,  Jie Liu,
 S. C. McKenzie,  A. F. Morrison,  K. Nanda,  F. Plasser,  D. R. Rehn,
 M. L. Vidal,  Zhi-Qiang You,  Ying Zhu,  B. Alam,  B. Albrecht,
 A. Aldossary,  E. Alguire,  J. H. Andersen,  D. Barton,  K. Begam,  A. Behn,
 Y. A. Bernard,  E. J. Berquist,  H. Burton,  A. Carreras,  K. Carter-Fenk,
 R. Chakraborty,  A. D. Chien,  K. D. Closser,  V. Cofer-Shabica,
 S. Dasgupta,  Jia Deng,  M. de Wergifosse,  M. Diedenhofen,  Hainam Do,
 S. Ehlert,  Po-Tung Fang,  S. Fatehi,  Qingguo Feng,  T. Friedhoff,
 J. Gayvert,  Qinghui Ge,  G. Gidofalvi,  M. Goldey,  J. Gomes,
 C. Gonzalez-Espinoza,  S. Gulania,  A. Gunina,  M. W. D. Hanson-Heine,
 P. H. P. Harbach,  A. W. Hauser,  M. F. Herbst,  M. Hernandez Vera,
 M. Hodecker,  Z. C. Holden,  S. Houck,  Xunkun Huang,  Kerwin Hui,
 B. C. Huynh,  M. Ivanov,  Hyunjun Ji,  Hanjie Jiang,  B. Kaduk,  S. Kaehler,
 K. Khistyaev,  Jaehoon Kim,  P. Klunzinger,  Z. Koczor-Benda,
 Joong Hoon Koh,  D. Kosenkov,  L. Koulias,  T. Kowalczyk,  C. M. Krauter,
 K. Kue,  A. Kunitsa,  T. Kus,  A. Landau,  K. V. Lawler,  D. Lefrancois,
 S. Lehtola,  Rain Li,  Yi-Pei Li,  Jiashu Liang,  M. Liebenthal,
 Hung-Hsuan Lin,  You-Sheng Lin,  Fenglai Liu,  Kuan-Yu Liu,
 M. Loipersberger,  A. Luenser,  A. Manjanath,  P. Manohar,  E. Mansoor,
 S. F. Manzer,  Shan-Ping Mao,  A. V. Marenich,  T. Markovich,  S. Mason,
 S. A. Maurer,  P. F. McLaughlin,  M. F. S. J. Menger,  J.-M. Mewes,
 S. A. Mewes,  P. Morgante,  J. W. Mullinax,  K. J. Oosterbaan,  G. Paran,
 Alexander C. Paul,  Suranjan K. Paul,  F. Pavosevic,  Zheng Pei,  S. Prager,
 E. I. Proynov,  E. Ramos,  B. Rana,  A. E. Rask,  A. Rettig,  R. M. Richard,
 F. Rob,  E. Rossomme,  T. Scheele,  M. Scheurer,  M. Schneider,
 N. Sergueev,  S. M. Sharada,  W. Skomorowski,  D. W. Small,  C. J. Stein,
 Yu-Chuan Su,  E. J. Sundstrom,  Zhen Tao,  J. Thirman,  T. Tsuchimochi,
 N. M. Tubman,  S. P. Veccham,  O. Vydrov,  J. Wenzel,  J. Witte,  A. Yamada,
 Kun Yao,  S. Yeganeh,  S. R. Yost,  A. Zech,  Igor Ying Zhang,  Xing Zhang,
 Yu Zhang,  D. Zuev,  A. Aspuru-Guzik,  A. T. Bell,  N. A. Besley,
 K. B. Bravaya,  B. R. Brooks,  D. Casanova,  Jeng-Da Chai,  S. Coriani,
 C. J. Cramer,  A. E. DePrince, III,  R. A. DiStasio Jr.,  A. Dreuw,
 B. D. Dunietz,  T. R. Furlani,  W. A. Goddard III,  S. Grimme,
 S. Hammes-Schiffer,  T. Head-Gordon,  W. J. Hehre,  Chao-Ping Hsu,
 T.-C. Jagau,  Yousung Jung,  A. Klamt,  Jing Kong,  D. S. Lambrecht,
 WanZhen Liang,  N. J. Mayhall,  C. W. McCurdy,  J. B. Neaton,
 C. Ochsenfeld,  J. A. Parkhill,  R. Peverati,  V. A. Rassolov,  Yihan Shao,
 L. V. Slipchenko,  T. Stauch,  R. P. Steele,  J. E. Subotnik,
 A. J. W. Thom,  A. Tkatchenko,  D. G. Truhlar,  T. Van Voorhis,
 T. A. Wesolowski,  K. B. Whaley,  H. L. Woodcock III,  P. M. Zimmerman,
 S. Faraji,  P. M. W. Gill,  M. Head-Gordon,  J. M. Herbert,  A. I. Krylov

 Additional authors for Version 5.4.1:
 S. Kotaru,  Shaozhi Li,  Xiangyuan Li,  F. Matz,  A. Molle,  Haisheng Ren,
 Yingli Su,  Hung-Yi Tsai,  C. Utku,  Fang Wang

 Contributors to earlier versions of Q-Chem not listed above:
 R. D. Adamson,  B. Austin,  R. Baer,  J. Baker,  G. J. O. Beran,
 K. Brandhorst,  S. T. Brown,  E. F. C. Byrd,  A. K. Chakraborty,
 G. K. L. Chan,  Chun-Min Chang,  Yunqing Chen,  C.-L. Cheng,
 Siu Hung Chien,  D. M. Chipman,  D. L. Crittenden,  H. Dachsel,
 R. J. Doerksen,  A. D. Dutoi,  R. G. Edgar,  J. Fosso-Tande,
 L. Fusti-Molnar,  D. Ghosh,  A. Ghysels,  A. Golubeva-Zadorozhnaya,
 J. Gonthier,  M. S. Gordon,  S. R. Gwaltney,  G. Hawkins,  J. E. Herr,
 A. Heyden,  S. Hirata,  E. G. Hohenstein,  G. Kedziora,  F. J. Keil,
 C. Kelley,  Jihan Kim,  R. A. King,  R. Z. Khaliullin,  P. P. Korambath,
 W. Kurlancheek,  A. Laurent,  A. M. Lee,  M. S. Lee,  S. V. Levchenko,
 Ching Yeh Lin,  D. Liotard,  E. Livshits,  R. C. Lochan,  I. Lotan,
 L. A. Martinez-Martinez,  P. E. Maslen,  N. Nair,  D. P. O'Neill,
 D. Neuhauser,  E. Neuscamman,  C. M. Oana,  R. Olivares-Amaya,  R. Olson,
 T. M. Perrine,  B. Peters,  P. A. Pieniazek,  A. Prociuk,  Y. M. Rhee,
 J. Ritchie,  M. A. Rohrdanz,  E. Rosta,  N. J. Russ,  H. F. Schaefer III,
 M. W. Schmidt,  N. E. Schultz,  S. Sharma,  N. Shenvi,  C. D. Sherrill,
 A. C. Simmonett,  A. Sodt,  T. Stein,  D. Stuck,  K. S. Thanthiriwatte,
 V. Vanovschi,  L. Vogt,  Tao Wang,  A. Warshel,  M. A. Watson,
 C. F. Williams,  Q. Wu,  X. Xu,  Jun Yang,  W. Zhang,  Yan Zhao

 Please cite Q-Chem as follows:
 Y. Shao et al., Mol. Phys. 113, 184-215 (2015)
 DOI: 10.1080/00268976.2014.952696

 Q-Chem 5.4.1 for Intel X86 EM64T Linux

 Parts of Q-Chem use Armadillo 9.900.5 (Nocturnal Misbehaviour).
 http://arma.sourceforge.net/

 Q-Chem begins on Wed Jun 22 08:05:41 2022

 Host: p09r16n04.grace.hpc.yale.internal
0

     Scratch files written to /home/tl686/scratch60/qchem_dev/scratch/qchem69774//
 Processing $rem in /home/tl686/qchem_dev/qchem/config/preferences:
 Processing $rem in /home/tl686/.qchemrc:
Applying user defined connections for MM calculations
The previous job contains 0 fragments, simply inherited here

 Checking the input file for inconsistencies... 	...done.

--------------------------------------------------------------
User input:
--------------------------------------------------------------

$molecule
READ
$end

$qm_atoms
1:11
$end

$force_field_params
NumAtomTypes 3
AtomType -1   0.0238     3.11   0.2868
AtomType -2   0.07124    3.30   0.6597
AtomType -3  -0.0760     3.09   0.1434
$end

$rem
     JOBTYPE  freq
     METHOD   bp86
     BASIS    def2-msvp
     MAX_SCF_CYCLES   800
     INPUT_BOHR TRUE
     SYM_IGNORE TRUE
     SCF_GUESS     read
     user_connect            true
     qm_mm_interface         ONIOM
     force_field             oplsaa
$end

--------------------------------------------------------------

    3   -1830.4667063319      1.26E-09 Convergence criterion met
 Total energy in the final basis set = -1828.23658360

                    Orbital Energies (a.u.)
 --------------------------------------------------------------

 Alpha MOs
 -- Occupied --
******** -29.6158 -25.5776 -25.5640 -25.5572 -18.9092 -18.8826 -18.8715
-18.8708 -18.8568 -10.0437 -10.0428 -10.0379 -10.0362 -10.0241  -3.2990
 -2.1378  -2.1102  -2.0978  -1.1553  -1.0664  -1.0486  -1.0443  -1.0217
 -0.5556  -0.5308  -0.5169  -0.5073  -0.5005  -0.4912  -0.4889  -0.4513
 -0.4359  -0.4310  -0.4269  -0.4192  -0.4147  -0.4126  -0.4042  -0.3946
 -0.3926  -0.3867  -0.3851  -0.3741  -0.2589  -0.2507  -0.2173  -0.1981

          Ground-State Mulliken Net Atomic Charges

     Atom                 Charge (a.u.)
  ----------------------------------------
      1 Fe                   -0.439057
      2 C                     0.172100
      3 C                     0.159626
      4 C                     0.195788
      5 C                     0.211017
      6 C                     0.127783
      7 O                    -0.093390
      8 O                    -0.126518
      9 O                    -0.110480
     10 O                    -0.140528
     11 O                     0.043658
  ----------------------------------------
  Sum of atomic charges =     0.000000

                    Cartesian Multipole Moments
 -----------------------------------------------------------------
    Charge (ESU x 10^10)
                -0.0000
    Dipole Moment (Debye)
         X      -1.2545748728      Y      -0.7285920678      Z       1.2062064064
       Tot       1.8867269033
    Quadrupole Moments (Debye-Ang)
        XX    -213.3996     XY     -36.2132     YY     -63.0800
        XZ      44.5172     YZ     -19.6982     ZZ     -22.3541

 Frequency:      -818.94                -808.96                 -76.74
 Force Cnst:      5.3025                 5.2250                 0.0575
 Red. Mass:      13.4194                13.5513                16.5610
 IR Intens:        0.000                  0.000                  0.000
 Frequency:       -70.04                  63.33                  67.21
 Force Cnst:      0.0473                 0.0377                 0.0425
 Red. Mass:      16.3644                15.9677                15.9588
 IR Intens:        0.000                  0.000                  0.000
 Frequency:       106.71                 160.82                 189.89
 Force Cnst:      0.1067                 0.2396                 0.3190
 Red. Mass:      15.9100                15.7238                15.0153
 IR Intens:        0.000                  0.000                  0.000
 Frequency:       229.11                 312.85                 355.47
 Force Cnst:      0.4885                 0.7307                 0.9499
 Red. Mass:      15.7957                12.6717                12.7590
 IR Intens:        0.000                  0.000                  0.000
 Frequency:       385.30                 407.69                 412.96
 Force Cnst:      1.2931                 1.2894                 1.4076
 Red. Mass:      14.7830                13.1669                14.0094
 IR Intens:        0.000                  0.000                  0.000
 Frequency:       445.68                 475.77                 496.69
 Force Cnst:      1.7032                 1.8220                 1.8724
 Red. Mass:      14.5540                13.6616                12.8818
 IR Intens:        0.000                  0.000                  0.000
 Frequency:       535.24                 588.57                 607.87
 Force Cnst:      2.2320                 3.8926                 3.5355
 Red. Mass:      13.2233                19.0721                16.2396
 IR Intens:        0.000                  0.000                  0.000
 Frequency:       629.52                1923.08                2020.03
 Force Cnst:      3.6298                29.0565                32.0395
 Red. Mass:      15.5456                13.3352                13.3266
 IR Intens:        0.000                  0.000                  0.000
 Frequency:      2088.29                2186.54                3127.75
 Force Cnst:     34.3749                37.5979                77.4874
 Red. Mass:      13.3786                13.3475                13.4437
 IR Intens:        0.000                  0.000                  0.000

 STANDARD THERMODYNAMIC QUANTITIES AT   298.15 K  AND     1.00 ATM

   This Molecule has  4 Imaginary Frequencies
   Zero point vibrational energy:       25.470 kcal/mol

   Atom    1 Element Fe Has Mass   55.93490
   Atom    2 Element C  Has Mass   12.00000
   Atom    3 Element C  Has Mass   12.00000
   Atom    4 Element C  Has Mass   12.00000
   Atom    5 Element C  Has Mass   12.00000
   Atom    6 Element C  Has Mass   12.00000
   Atom    7 Element O  Has Mass   15.99491
   Atom    8 Element O  Has Mass   15.99491
   Atom    9 Element O  Has Mass   15.99491
   Atom   10 Element O  Has Mass   15.99491
   Atom   11 Element O  Has Mass   15.99491
   Molecular Mass:   195.909450 amu
   Principal axes and moments of inertia in amu*Bohr^2:
                             1           2           3
    Eigenvalues --     2001.28976  2136.38940  2485.70944
          X               0.86668     0.48587    -0.11310
          Y              -0.28969     0.67477     0.67879
          Z               0.40612    -0.55554     0.72557
   Rotational Symmetry Number is   1
   The Molecule is an Asymmetric Top
   Translational Enthalpy:        0.889 kcal/mol
   Rotational Enthalpy:           0.889 kcal/mol
   Vibrational Enthalpy:         29.946 kcal/mol
   gas constant (RT):             0.592 kcal/mol
   Translational Entropy:        41.722  cal/mol.K
   Rotational Entropy:           30.742  cal/mol.K
   Vibrational Entropy:          28.010  cal/mol.K

   Total Enthalpy:               32.316 kcal/mol
   Total Entropy:               100.474  cal/mol.K

 Total job time:  119.92s(wall), 236.90s(cpu)
        *  Thank you very much for using Q-Chem.  Have a nice day.  *
