 Q-Chem 5.4 (devel), Q-Chem, Inc., Pleasanton, CA (2021)
 Q-Chem 5.4.1 for Intel X86 EM64T Linux

User input:
--------------------------------------------------------------
$molecule
0   1
 Fe 109.38679868 -5.44472460 37.08472368    -1  0   0   0   0
C 110.29810097 -7.72656094 39.37659656    -2  0   0   0   0
C 106.62527252 -5.71171394 34.99005791    -2  0   0   0   0
C 111.47460269 -2.83840867 37.03314433    -2  0   0   0   0
C 111.19471299 -7.35292459 35.02383872    -2  0   0   0   0
C 106.99836490 -4.16020556 39.42067360    -2  0   0   0   0
O 110.77433986 -9.16681324 40.93536019    -3  0   0   0   0
O 105.04313306 -5.92555714 33.49482479    -3  0   0   0   0
O 112.99191930 -1.25611192 37.23464376    -3  0   0   0   0
O 112.32934571 -8.82818199 33.74417808    -3  0   0   0   0
O 105.41028765 -3.34590676 40.72539941    -3  0   0   0   0
H 138.02150053 -5.54043023 47.65030148      6     13    0    0    0
C 137.71896208 -6.94293062 49.10403852     1     12    14    15    16
H 139.48170484 -6.66690244 50.28297982     6     13    0    0    0
H 136.39569486 -6.30202663 50.44088380     6     13    0    0    0
C 137.13333578 -9.59246458 48.10468040     2     13    17    18    19
H 138.78769842 -9.99165393 46.90846106     6     16    0    0    0
H 137.07566376 -10.86557846 49.70640292     6     16    0    0    0
C 134.73896193 -9.81668280 46.48085217     2     16    20   21   22
H 132.94400643 -9.46564929 47.43766155     6     19    0    0    0
H 134.92605704 -8.37556000 44.86043933     6     19    0    0    0
C 134.48715935 -12.49486806 45.27667110     2     19   23   24   25
H 136.17819970 -12.93729026 44.11897220     6    22    0    0    0
H 134.54798744 -14.18752477 46.44384333     6    22    0    0    0
C 131.97302215 -12.82355461 43.72724644     2    22   26   27   28
H 130.56675806 -12.59457828 45.17810321     6    25    0    0    0
H 131.87508309 -11.17164826 42.35334387     6    25    0    0    0
C 131.90076975 -15.51144018 42.54016605     2    25   29   30   31
H 133.72917791 -16.17668354 41.86628551     6    28    0    0    0
H 131.53373419 -16.90511420 44.04143533     6    28    0    0    0
C 130.11986110 -15.75261662 40.24331798     2    28   32   33   34
H 128.10468636 -15.13296516 40.67043161     6    31    0    0    0
H 130.69610783 -14.41035962 38.78708918     6    31    0    0    0
C 130.07345808 -18.26440639 39.00175180     2    31   35   36   37
H 131.95486739 -19.05757914 38.42327752     6    34    0    0    0
H 129.44823305 -19.65545861 40.41289770     6    34    0    0    0
C 128.47536848 -18.39418820 36.66951161     2    34   38   39   40
H 126.66298041 -17.94326281 37.26158189     6    37    0    0    0
H 128.95644950 -16.89629265 35.28074889     6    37    0    0    0
C 128.45632916 -20.88744037 35.26134216     2    37   41   42   43
H 130.33137595 -21.20250618 34.37157209     6    40    0    0    0
H 128.21218801 -22.37337658 36.65868404     6    40    0    0    0
C 126.41778185 -20.99264833 33.06970805     2    40   44   45   46
H 124.68332704 -20.45148840 33.99108679     6    43    0    0    0
H 126.90723710 -19.47992519 31.77151397     6    43    0    0    0
C 126.49012050 -23.63293973 31.75991525     1    43   47   48   49
H 128.33351828 -23.95416076 31.03505953     6    46    0    0    0
H 125.11861257 -23.72528062 30.24580709     6    46    0    0    0
H 125.87122336 -25.21979350 33.02099896     6    46    0    0    0
H 116.85707563 -17.41358494 39.15069068     6     51    0    0    0
C 116.39131963 -15.44350514 39.20543635     1     50    52    53    54
H 114.36483187 -15.38710414 39.11291191     6     51    0    0    0
H 116.72784812 -14.68675135 41.07067890     6     51    0    0    0
C 117.82253230 -13.95943202 37.06197930     2     51    55    56    57
H 117.41512502 -11.88416063 37.27244630     6     54    0    0    0
H 119.96223129 -14.41488498 37.34064299     6     54    0    0    0
C 116.96225807 -14.44113467 34.28962021     2     54    58   59   60
H 114.85972738 -14.22310533 34.24338970     6     57    0    0    0
H 117.73316422 -13.09869942 32.79053545     6     57    0    0    0
C 117.92069036 -17.12656909 33.65782023     2     57   61   62   63
H 119.97015624 -17.46390973 34.11266139     6    60    0    0    0
H 116.88925306 -18.55805476 34.69487300     6    60    0    0    0
C 117.36412257 -17.73319214 30.82157321     2    60   64   65   66
H 115.45715762 -18.07658070 30.45502087     6    63    0    0    0
H 118.12129251 -16.21435634 29.61038219     6    63    0    0    0
C 118.58765555 -20.17275883 30.02960484     2    63   67   68   69
H 118.61035513 -20.26007390 28.05908773     6    66    0    0    0
H 120.58403716 -20.10491650 30.43216634     6    66    0    0    0
C 117.40247309 -22.61306943 31.20332665     2    66   70   71   72
H 117.31828847 -22.49874873 33.26876960     6    69    0    0    0
H 115.34409215 -22.76155421 30.76511490     6    69    0    0    0
C 118.78597353 -25.06345356 30.25512497     2    69   73   74   75
H 119.06135234 -24.76190458 28.16912575     6    72    0    0    0
H 120.68487127 -25.21495259 30.91141447     6    72    0    0    0
C 117.21293222 -27.51673446 30.75232985     2    72   76   77   78
H 116.64729530 -27.95092406 32.71868326     6    75    0    0    0
H 115.43491939 -27.46843571 29.61457424     6    75    0    0    0
C 118.74094145 -29.89086617 29.95870315     2    75   79   80   81
H 119.60474683 -29.59140595 28.13009891     6    78    0    0    0
H 120.35766027 -30.04911224 31.18332497     6    78    0    0    0
C 116.86833010 -32.13551778 30.08384496     2    78   82   83   84
H 116.04724842 -32.22138105 31.93211018     6    81    0    0    0
H 115.35861670 -31.66317342 28.95126802     6    81    0    0    0
C 118.00097950 -34.77565295 29.52841264     1    81   85   86   87
H 116.39433489 -36.15458039 29.29826922     6    84    0    0    0
H 119.10290749 -35.39057891 31.09828534     6    84    0    0    0
H 119.17482408 -34.71021182 27.89225008     6    84    0    0    0
H 142.54155249 0.79439357 30.98476837     6     89    0    0    0
C 141.50609030 -0.98033043 30.94640486     1     88    90    91    92
H 140.57960131 -0.96083494 32.75471856     6     89    0    0    0
H 140.11748414 -1.29412185 29.45908697     6     89    0    0    0
C 143.59997489 -3.05610652 30.83425155     2     89    93    94    95
H 144.24588059 -2.94083682 28.93280810     6     92    0    0    0
H 145.11491920 -2.54570849 32.15783306     6     92    0    0    0
C 142.54447107 -5.59598690 31.46809538     2     92    96   97   98
H 141.65618936 -5.73813383 33.39366106     6     95    0    0    0
H 141.09706441 -5.91619398 29.93873514     6     95    0    0    0
C 144.44825315 -7.61600816 30.87797658     2     95   99   100   101
H 145.21497823 -7.62612799 29.03491798     6    98    0    0    0
H 145.98564918 -7.47203118 32.27221109     6    98    0    0    0
C 143.53897934 -10.23637627 31.18881764     2    98   102   103   104
H 142.78798058 -10.57309155 33.12305862     6    101    0    0    0
H 141.97513528 -10.62813558 29.86786231     6    101    0    0    0
C 145.37777816 -12.45562116 30.54933167     2    101   105   106   107
H 146.43929850 -12.08442431 28.91048256     6    104    0    0    0
H 146.78296562 -12.78804272 31.96451695     6    104    0    0    0
C 144.13076135 -15.00093934 30.33282476     2    104   108   109   110
H 143.13262139 -15.33871684 32.10768405     6    107    0    0    0
H 142.58745382 -14.88942153 28.86449803     6    107    0    0    0
C 145.74934320 -17.24316965 29.50612767     2    107   111   112   113
H 146.83678656 -16.51209043 28.02500731     6    110    0    0    0
H 147.03617672 -17.96590008 30.97775516     6    110    0    0    0
C 144.30320274 -19.61092092 28.47146578     2    110   114   115   116
H 142.74490837 -19.66129722 29.89697932     6    113    0    0    0
H 143.46938038 -19.26911155 26.62404842     6    113    0    0    0
C 145.68375630 -22.14218400 28.76227663     2    113   117   118   119
H 147.10540387 -22.04594312 27.15921901     6    116    0    0    0
H 146.65587968 -21.95859606 30.46887699     6    116    0    0    0
C 144.03914838 -24.61621959 28.69597217     2    116   120   121   122
H 145.38384829 -26.09695380 29.26829629     6    119    0    0    0
H 142.74506720 -24.45068521 30.22345015     6    119    0    0    0
C 142.87454097 -25.57135945 26.28361329     1    119   123   124   125
H 142.71242011 -27.49255899 26.64726385     6    122    0    0    0
H 144.42762723 -25.53532941 24.85760865     6    122    0    0    0
H 141.10536434 -24.76888280 25.62671117     6    122    0    0    0
H 129.00146543 20.28595635 18.64889452     6     127    0    0    0
C 127.31069850 19.19337993 18.90850647     1     126    128    129    130
H 125.72966627 20.30710670 18.24486141     6     127    0    0    0
H 127.60151739 17.23078628 18.24311026     6     127    0    0    0
C 127.21997262 18.90276072 21.68189943     2     127    131    132    133
H 129.05614426 18.51662919 22.58098087     6     130    0    0    0
H 126.59869409 20.60497287 22.57667445     6     130    0    0    0
C 125.43037601 16.68254178 22.39382449     2     130    134   135   136
H 123.53537423 16.79055575 21.59162203     6     133    0    0    0
H 126.20895311 14.94384900 21.40259809     6     133    0    0    0
C 125.23476103 16.57997726 25.33807218     2     133   137   138   139
H 127.12602926 16.71921490 26.31748335     6    136    0    0    0
H 124.15986760 18.20981173 25.61743837     6    136    0    0    0
C 123.90054697 14.22631186 26.44496547     2    136   140   141   142
H 122.11739655 13.98909539 25.40407705     6    139    0    0    0
H 125.08842311 12.53426766 26.26801296     6    139    0    0    0
C 123.31533262 14.70937211 29.35585331     2    139   143   144   145
H 125.14253145 15.27845120 30.26073402     6    142    0    0    0
H 122.15596861 16.26112485 29.41452507     6    142    0    0    0
C 122.10750735 12.44362666 30.80723387     2    142   146   147   148
H 120.28342123 12.23696812 29.66244688     6    145    0    0    0
H 123.15609052 10.72391663 30.43851084     6    145    0    0    0
C 121.39888138 13.08911842 33.54826547     2    145   149   150   151
H 122.99377065 13.52952694 34.57819877     6    148    0    0    0
H 120.34056927 14.94252461 33.59919101     6    148    0    0    0
C 119.71145075 11.08405554 34.71534479     2    148   152   153   154
H 118.11050783 10.72957642 33.68875214     6    151    0    0    0
H 120.77633544 9.34584905 34.72569691     6    151    0    0    0
C 119.33428077 11.52492455 37.60893603     2    151   155   156   157
H 117.92607799 10.32649943 38.29158797     6    154    0    0    0
H 121.01084328 11.22518327 38.73556314     6    154    0    0    0
C 118.20969415 14.18997217 38.15992531     2    154   158   159   160
H 119.78219178 15.70128811 37.83478865     6    157    0    0    0
H 116.60443265 14.68575367 36.79126477     6    157    0    0    0
C 116.97582076 14.29737832 40.78063377     1    157   161   162   163
H 116.32387503 16.28032372 41.19995275     6    160    0    0    0
H 118.12672917 13.64066023 42.29588787     6    160    0    0    0
H 115.24640694 13.13018549 40.70125803     6    160    0    0    0
H 125.59301299 -12.04953541 3.72028686     6     165    0    0    0
C 127.30049601 -10.84393596 3.84765038     1     164    166    167    168
H 128.22730608 -11.27372313 5.59531114     6     165    0    0    0
H 128.55061497 -11.24803753 2.29463645     6     165    0    0    0
C 126.97877904 -8.02922823 3.90723629     2     165    169    170    171
H 126.51385891 -7.29360359 1.93492212     6     168    0    0    0
H 125.54465566 -7.51674333 5.17607186     6     168    0    0    0
C 129.34584082 -6.59274572 4.73486743     2     168    172   173   174
H 130.35984143 -7.53348158 6.46417839     6     171    0    0    0
H 130.77491368 -6.57756055 3.25375248     6     171    0    0    0
C 128.75638943 -3.92672135 5.46263735     2     171   175   176   177
H 127.34487286 -3.14166898 4.37516229     6    174    0    0    0
H 127.93074450 -4.04618967 7.29476256     6    174    0    0    0
C 131.13882236 -2.52419281 5.82095754     2    174   178   179   180
H 132.38462720 -3.22872554 7.32679008     6    177    0    0    0
H 132.45915614 -2.75423537 4.14569529     6    177    0    0    0
C 130.70857168 0.30921561 6.51933368     2    177   181   182   183
H 129.34089579 0.99798607 5.15286017     6    180    0    0    0
H 129.68174561 0.29302661 8.20945891     6    180    0    0    0
C 133.09423356 1.97781130 6.57229216     2    180   184   185   186
H 134.29699277 1.39747183 8.13252848     6    183    0    0    0
H 134.15592662 1.93558786 4.89905773     6    183    0    0    0
C 132.34942442 4.79738839 6.75286541     2    183   187   188   189
H 131.29066970 5.12259983 4.96577794     6    186    0    0    0
H 131.04494668 5.08011129 8.37504450     6    186    0    0    0
C 134.67999717 6.68011949 7.16292506     2    186   190   191   192
H 135.93048792 6.20830469 8.74793546     6    189    0    0    0
H 135.70360719 6.34784857 5.46494648     6    189    0    0    0
C 133.59255650 9.37345397 7.25692933     2    189   193   194   195
H 132.20719786 9.52745757 5.73815298     6    192    0    0    0
H 132.56607843 9.84209189 9.03557377     6    192    0    0    0
C 135.76503180 11.40120968 7.04498990     2    192   196   197   198
H 137.31145798 11.21947310 8.47046219     6    195    0    0    0
H 136.77952150 11.02199183 5.25580940     6    195    0    0    0
C 134.61658222 14.08521116 6.94513214     1    195   199   200   201
H 135.96872126 15.55398172 6.93401339     6    198    0    0    0
H 133.38163117 14.37619907 8.52922300     6    198    0    0    0
H 133.59014659 14.52369641 5.12826093     6    198    0    0    0
H 121.07957186 -10.85137480 13.50934729     6     203    0    0    0
C 121.71304450 -9.18639702 12.51035800     1     202    204    205    206
H 120.17206325 -7.81435968 12.23759246     6     203    0    0    0
H 123.05384474 -8.39539289 13.79453968     6     203    0    0    0
C 122.71640081 -9.89599866 9.79299849     2     203    207    208    209
H 122.89940829 -8.23679811 8.77839224     6     206    0    0    0
H 124.73511193 -10.52837719 9.94878537     6     206    0    0    0
C 121.29742439 -11.90928096 8.30150709     2     206    210   211   212
H 122.02736460 -11.96207587 6.35867351     6     209    0    0    0
H 121.60303107 -13.77715453 9.08598544     6     209    0    0    0
C 118.42446459 -11.42262423 7.75392993     2     209   213   214   215
H 117.44125413 -10.89942867 9.51924958     6    212    0    0    0
H 118.47058837 -9.84963765 6.38930134     6    212    0    0    0
C 117.07043021 -13.68145426 6.71963279     2    212   216   217   218
H 117.60163262 -13.91314075 4.72656808     6    215    0    0    0
H 117.65229070 -15.42672167 7.73429166     6    215    0    0    0
C 114.19946717 -13.48005929 6.97022476     2    215   219   220   221
H 113.95855389 -13.13741253 8.80821553     6    218    0    0    0
H 113.57016297 -11.88805987 5.76363986     6    218    0    0    0
C 112.77027552 -15.78101182 5.94096001     2    218   222   223   224
H 113.40647009 -16.24176091 3.92924963     6    221    0    0    0
H 113.42257279 -17.38296589 7.08405902     6    221    0    0    0
C 109.93870232 -15.26548744 6.27262648     2    221   225   226   227
H 109.79330546 -14.20067998 8.07538143     6    224    0    0    0
H 109.20012770 -14.02567009 4.81561361     6    224    0    0    0
C 108.29262901 -17.69669112 6.46375223     2    224   228   229   230
H 108.94372094 -19.02341599 5.02759065     6    227    0    0    0
H 108.80938529 -18.47389309 8.24945631     6    227    0    0    0
C 105.41403468 -17.34335680 6.45649846     2    227   231   232   233
H 104.95330367 -15.83756010 7.83738162     6    230    0    0    0
H 104.63327391 -16.60152719 4.61517592     6    230    0    0    0
C 103.74249426 -19.60795074 6.99775671     2    230   234   235   236
H 103.90655968 -21.17430239 5.62645192     6    233    0    0    0
H 104.30542777 -20.21651320 8.87066236     6    233    0    0    0
C 100.93758478 -18.91305451 7.25121560     1    233   237   238   239
H 99.63261806 -20.60282139 6.80570475     6    236    0    0    0
H 100.32217005 -17.57521032 5.65654332     6    236    0    0    0
H 100.45458037 -18.02783839 9.13886107     6    236    0    0    0
H 128.56769522 -34.69659158 26.13228526     6     241    0    0    0
C 129.27013273 -33.52565251 24.49328103     1     240    242    243    244
H 130.81447461 -34.43771758 23.63934293     6     241    0    0    0
H 127.66044101 -33.29933755 23.23728225     6     241    0    0    0
C 129.84852006 -30.83099607 25.42887093     2     241    245    246    247
H 131.48948377 -30.61720154 26.80607714     6     244    0    0    0
H 130.59986599 -29.99948194 23.83377946     6     244    0    0    0
C 127.61525464 -29.22726216 26.27746526     2     244    248   249   250
H 128.35408587 -27.45327254 26.90475151     6     247    0    0    0
H 126.57610881 -28.99461749 24.58471283     6     247    0    0    0
C 126.13000402 -30.49583234 28.47435768     2     247   251   252   253
H 124.75994875 -29.08551518 29.26129951     6    250    0    0    0
H 125.20224335 -32.22964331 27.76675666     6    250    0    0    0
C 127.67328188 -31.23053050 30.69687497     2    250   254   255   256
H 129.19359158 -32.49912216 30.20239191     6    253    0    0    0
H 128.76563436 -29.56449937 31.32029161     6    253    0    0    0
C 126.42831086 -32.56991522 32.89906044     2    253   257   258   259
H 128.01805677 -32.71417089 34.17493909     6    256    0    0    0
H 124.82422937 -31.47677026 33.86542151     6    256    0    0    0
C 125.83649983 -35.35183747 32.45438846     2    256   260   261   262
H 124.08151712 -35.70154040 31.33737018     6    259    0    0    0
H 127.27787383 -36.32883264 31.36497646     6    259    0    0    0
C 125.38848541 -36.69168902 35.07671552     2    259   263   264   265
H 127.08076408 -36.83292593 36.25387121     6    262    0    0    0
H 124.13325320 -35.60455295 36.15583462     6    262    0    0    0
C 124.17708941 -39.39944739 34.51505566     2    262   266   267   268
H 123.22296915 -40.01893052 36.17846875     6    265    0    0    0
H 122.52152118 -39.20264203 33.21642365     6    265    0    0    0
C 126.02986581 -41.40827866 33.49026401     2    265   269   270   271
H 126.56727151 -40.97837673 31.41072149     6    268    0    0    0
H 127.63355692 -41.58419722 34.90429372     6    268    0    0    0
C 125.08365171 -44.11948491 33.11229905     2    268   272   273   274
H 124.91752522 -44.84585280 35.01511350     6    271    0    0    0
H 123.24899191 -43.90016175 32.19261524     6    271    0    0    0
C 126.88935729 -45.83593362 31.62019739     1    271   275   276   277
H 127.18677640 -44.87525779 29.83215168     6    274    0    0    0
H 126.13375824 -47.65022788 31.12595002     6    274    0    0    0
H 128.73649441 -46.23217617 32.50462860     6    274    0    0    0
H 132.40424256 -8.50490951 18.16943395     6     279    0    0    0
C 133.78405578 -9.98831786 17.77144165     1     278    280    281    282
H 135.53131125 -8.71508655 17.34551343     6     279    0    0    0
H 134.09677914 -11.20723560 19.45096636     6     279    0    0    0
C 133.04548340 -11.46093260 15.50420439     2     279    283    284    285
H 132.70068342 -10.16826318 14.06056837     6     282    0    0    0
H 134.77921778 -12.56975468 15.15469146     6     282    0    0    0
C 130.74468927 -13.08414576 15.99095760     2     282    286   287   288
H 131.32888118 -14.16753201 17.60599536     6     285    0    0    0
H 129.09328332 -11.95565004 16.45922806     6     285    0    0    0
C 130.14967813 -14.90257090 13.93136884     2     285   289   290   291
H 129.63431988 -14.05091554 12.14545187     6    288    0    0    0
H 131.87630257 -15.88568487 13.25963753     6    288    0    0    0
C 127.98420712 -16.65041306 14.66697670     2    288   292   293   294
H 128.35575274 -17.48675579 16.49562925     6    291    0    0    0
H 126.32626518 -15.48907895 14.99888550     6    291    0    0    0
C 127.35323201 -18.73895674 12.80648261     2    291   295   296   297
H 127.02586874 -18.04123046 10.93875120     6    294    0    0    0
H 128.97866418 -19.81826903 12.62608294     6    294    0    0    0
C 125.02681146 -20.55114164 13.29269856     2    294   298   299   300

   17   -1830.5194170452      3.14E-09 Convergence criterion met
 Total energy in the final basis set = -1828.32964307
 Total job time:  16.98s(wall), 29.64s(cpu)
        *  Thank you very much for using Q-Chem.  Have a nice day.  *

User input: 2 of 2

                  Welcome to Q-Chem
     A Quantum Leap Into The Future Of Chemistry

 Q-Chem 5.4 (devel), Q-Chem, Inc., Pleasanton, CA (2021)

 E. Epifanovsky,  A. T. B. Gilbert,  Xintian Feng,  Joonho Lee,  Yuezhi Mao,
 N. Mardirossian,  P. Pokhilko,  A. White,  M. Wormit,  M. P. Coons,
 A. L. Dempwolff,  Zhengting Gan,  D. Hait,  P. R. Horn,  L. D. Jacobson,
 I. Kaliman,  J. Kussmann,  A. W. Lange,  Ka Un Lao,  D. S. Levine,  Jie Liu,
 S. C. McKenzie,  A. F. Morrison,  K. Nanda,  F. Plasser,  D. R. Rehn,
 M. L. Vidal,  Zhi-Qiang You,  Ying Zhu,  B. Alam,  B. Albrecht,
 A. Aldossary,  E. Alguire,  J. H. Andersen,  D. Barton,  K. Begam,  A. Behn,
 Y. A. Bernard,  E. J. Berquist,  H. Burton,  A. Carreras,  K. Carter-Fenk,
 R. Chakraborty,  A. D. Chien,  K. D. Closser,  V. Cofer-Shabica,
 S. Dasgupta,  Jia Deng,  M. de Wergifosse,  M. Diedenhofen,  Hainam Do,
 S. Ehlert,  Po-Tung Fang,  S. Fatehi,  Qingguo Feng,  T. Friedhoff,
 J. Gayvert,  Qinghui Ge,  G. Gidofalvi,  M. Goldey,  J. Gomes,
 C. Gonzalez-Espinoza,  S. Gulania,  A. Gunina,  M. W. D. Hanson-Heine,
 P. H. P. Harbach,  A. W. Hauser,  M. F. Herbst,  M. Hernandez Vera,
 M. Hodecker,  Z. C. Holden,  S. Houck,  Xunkun Huang,  Kerwin Hui,
 B. C. Huynh,  M. Ivanov,  Hyunjun Ji,  Hanjie Jiang,  B. Kaduk,  S. Kaehler,
 K. Khistyaev,  Jaehoon Kim,  P. Klunzinger,  Z. Koczor-Benda,
 Joong Hoon Koh,  D. Kosenkov,  L. Koulias,  T. Kowalczyk,  C. M. Krauter,
 K. Kue,  A. Kunitsa,  T. Kus,  A. Landau,  K. V. Lawler,  D. Lefrancois,
 S. Lehtola,  Rain Li,  Yi-Pei Li,  Jiashu Liang,  M. Liebenthal,
 Hung-Hsuan Lin,  You-Sheng Lin,  Fenglai Liu,  Kuan-Yu Liu,
 M. Loipersberger,  A. Luenser,  A. Manjanath,  P. Manohar,  E. Mansoor,
 S. F. Manzer,  Shan-Ping Mao,  A. V. Marenich,  T. Markovich,  S. Mason,
 S. A. Maurer,  P. F. McLaughlin,  M. F. S. J. Menger,  J.-M. Mewes,
 S. A. Mewes,  P. Morgante,  J. W. Mullinax,  K. J. Oosterbaan,  G. Paran,
 Alexander C. Paul,  Suranjan K. Paul,  F. Pavosevic,  Zheng Pei,  S. Prager,
 E. I. Proynov,  E. Ramos,  B. Rana,  A. E. Rask,  A. Rettig,  R. M. Richard,
 F. Rob,  E. Rossomme,  T. Scheele,  M. Scheurer,  M. Schneider,
 N. Sergueev,  S. M. Sharada,  W. Skomorowski,  D. W. Small,  C. J. Stein,
 Yu-Chuan Su,  E. J. Sundstrom,  Zhen Tao,  J. Thirman,  T. Tsuchimochi,
 N. M. Tubman,  S. P. Veccham,  O. Vydrov,  J. Wenzel,  J. Witte,  A. Yamada,
 Kun Yao,  S. Yeganeh,  S. R. Yost,  A. Zech,  Igor Ying Zhang,  Xing Zhang,
 Yu Zhang,  D. Zuev,  A. Aspuru-Guzik,  A. T. Bell,  N. A. Besley,
 K. B. Bravaya,  B. R. Brooks,  D. Casanova,  Jeng-Da Chai,  S. Coriani,
 C. J. Cramer,  A. E. DePrince, III,  R. A. DiStasio Jr.,  A. Dreuw,
 B. D. Dunietz,  T. R. Furlani,  W. A. Goddard III,  S. Grimme,
 S. Hammes-Schiffer,  T. Head-Gordon,  W. J. Hehre,  Chao-Ping Hsu,
 T.-C. Jagau,  Yousung Jung,  A. Klamt,  Jing Kong,  D. S. Lambrecht,
 WanZhen Liang,  N. J. Mayhall,  C. W. McCurdy,  J. B. Neaton,
 C. Ochsenfeld,  J. A. Parkhill,  R. Peverati,  V. A. Rassolov,  Yihan Shao,
 L. V. Slipchenko,  T. Stauch,  R. P. Steele,  J. E. Subotnik,
 A. J. W. Thom,  A. Tkatchenko,  D. G. Truhlar,  T. Van Voorhis,
 T. A. Wesolowski,  K. B. Whaley,  H. L. Woodcock III,  P. M. Zimmerman,
 S. Faraji,  P. M. W. Gill,  M. Head-Gordon,  J. M. Herbert,  A. I. Krylov

 Additional authors for Version 5.4.1:
 S. Kotaru,  Shaozhi Li,  Xiangyuan Li,  F. Matz,  A. Molle,  Haisheng Ren,
 Yingli Su,  Hung-Yi Tsai,  C. Utku,  Fang Wang

 Contributors to earlier versions of Q-Chem not listed above:
 R. D. Adamson,  B. Austin,  R. Baer,  J. Baker,  G. J. O. Beran,
 K. Brandhorst,  S. T. Brown,  E. F. C. Byrd,  A. K. Chakraborty,
 G. K. L. Chan,  Chun-Min Chang,  Yunqing Chen,  C.-L. Cheng,
 Siu Hung Chien,  D. M. Chipman,  D. L. Crittenden,  H. Dachsel,
 R. J. Doerksen,  A. D. Dutoi,  R. G. Edgar,  J. Fosso-Tande,
 L. Fusti-Molnar,  D. Ghosh,  A. Ghysels,  A. Golubeva-Zadorozhnaya,
 J. Gonthier,  M. S. Gordon,  S. R. Gwaltney,  G. Hawkins,  J. E. Herr,
 A. Heyden,  S. Hirata,  E. G. Hohenstein,  G. Kedziora,  F. J. Keil,
 C. Kelley,  Jihan Kim,  R. A. King,  R. Z. Khaliullin,  P. P. Korambath,
 W. Kurlancheek,  A. Laurent,  A. M. Lee,  M. S. Lee,  S. V. Levchenko,
 Ching Yeh Lin,  D. Liotard,  E. Livshits,  R. C. Lochan,  I. Lotan,
 L. A. Martinez-Martinez,  P. E. Maslen,  N. Nair,  D. P. O'Neill,
 D. Neuhauser,  E. Neuscamman,  C. M. Oana,  R. Olivares-Amaya,  R. Olson,
 T. M. Perrine,  B. Peters,  P. A. Pieniazek,  A. Prociuk,  Y. M. Rhee,
 J. Ritchie,  M. A. Rohrdanz,  E. Rosta,  N. J. Russ,  H. F. Schaefer III,
 M. W. Schmidt,  N. E. Schultz,  S. Sharma,  N. Shenvi,  C. D. Sherrill,
 A. C. Simmonett,  A. Sodt,  T. Stein,  D. Stuck,  K. S. Thanthiriwatte,
 V. Vanovschi,  L. Vogt,  Tao Wang,  A. Warshel,  M. A. Watson,
 C. F. Williams,  Q. Wu,  X. Xu,  Jun Yang,  W. Zhang,  Yan Zhao

 Please cite Q-Chem as follows:
 Y. Shao et al., Mol. Phys. 113, 184-215 (2015)
 DOI: 10.1080/00268976.2014.952696

 Q-Chem 5.4.1 for Intel X86 EM64T Linux

 Parts of Q-Chem use Armadillo 9.900.5 (Nocturnal Misbehaviour).
 http://arma.sourceforge.net/

 Q-Chem begins on Fri Jul  1 20:00:20 2022

 Host: p09r14n09.grace.hpc.yale.internal
0

     Scratch files written to /home/tl686/scratch60/qchem_dev/scratch/qchem9024//
 Processing $rem in /home/tl686/qchem_dev/qchem/config/preferences:
 Processing $rem in /home/tl686/.qchemrc:
Applying user defined connections for MM calculations
The previous job contains 0 fragments, simply inherited here

 Checking the input file for inconsistencies... 	...done.

--------------------------------------------------------------
User input:
--------------------------------------------------------------

$molecule
READ
$end

$qm_atoms
1:11
$end

$force_field_params
NumAtomTypes 3
AtomType -1   0.0238     3.11   0.2868
AtomType -2   0.07124    3.30   0.6597
AtomType -3  -0.0760     3.09   0.1434
$end

$rem
     JOBTYPE  freq
     METHOD   bp86
     BASIS    def2-msvp
     MAX_SCF_CYCLES   800
     INPUT_BOHR TRUE
     SYM_IGNORE TRUE
     SCF_GUESS     read
     user_connect            true
     qm_mm_interface         ONIOM
     force_field             oplsaa
$end

--------------------------------------------------------------

    3   -1830.5194170458      5.77E-09 Convergence criterion met
 Total energy in the final basis set = -1828.32964308

                    Orbital Energies (a.u.)
 --------------------------------------------------------------

 Alpha MOs
 -- Occupied --
******** -29.6377 -25.5973 -25.5851 -25.5809 -18.8975 -18.8826 -18.8787
-18.8786 -18.8663 -10.0662 -10.0558 -10.0475 -10.0455 -10.0314  -3.3226
 -2.1569  -2.1342  -2.1268  -1.0649  -1.0595  -1.0579  -1.0390  -1.0357
 -0.5763  -0.5328  -0.5220  -0.5148  -0.5109  -0.4566  -0.4465  -0.4432
 -0.4350  -0.4317  -0.4273  -0.4245  -0.4221  -0.4169  -0.4107  -0.4055
 -0.4044  -0.3963  -0.3930  -0.3816  -0.2790  -0.2710  -0.2358  -0.2245

          Ground-State Mulliken Net Atomic Charges

     Atom                 Charge (a.u.)
  ----------------------------------------
      1 Fe                   -0.479949
      2 C                     0.212524
      3 C                     0.208918
      4 C                     0.225160
      5 C                     0.189695
      6 C                     0.222548
      7 O                    -0.103046
      8 O                    -0.101868
      9 O                    -0.126169
     10 O                    -0.145592
     11 O                    -0.102222
  ----------------------------------------
  Sum of atomic charges =     0.000000

                    Cartesian Multipole Moments
 -----------------------------------------------------------------
    Charge (ESU x 10^10)
                -0.0000
    Dipole Moment (Debye)
         X      -0.6068135576      Y      -0.0384868221      Z       0.3496775974
       Tot       0.7014116846
    Quadrupole Moments (Debye-Ang)
        XX    -139.8975     XY      -0.8804     YY     -69.9979
        XZ       7.9260     YZ      -2.0215     ZZ     -55.4605
