 Q-Chem 5.4 (devel), Q-Chem, Inc., Pleasanton, CA (2021)
 Q-Chem 5.4.1 for Intel X86 EM64T Linux

User input:
--------------------------------------------------------------
$molecule
0   1
 Fe -23.14340987 18.94896772 40.66993025    -1  0   0   0   0
C -21.50572634 15.98155208 41.13569713    -2  0   0   0   0
C -24.32180308 22.16370012 40.75561572    -2  0   0   0   0
C -22.20833690 19.37395278 43.93958619    -2  0   0   0   0
C -21.04185952 19.68843367 38.29695998    -2  0   0   0   0
C -25.86566767 17.05001090 39.68900818    -2  0   0   0   0
O -20.44340376 14.13769148 41.85435804    -3  0   0   0   0
O -24.92500800 24.29766259 40.86522400    -3  0   0   0   0
O -21.92057410 19.89499645 46.03482376    -3  0   0   0   0
O -19.81487498 20.42358785 36.59290362    -3  0   0   0   0
O -27.85635189 16.16130648 38.96942632    -3  0   0   0   0
H 0.99547879 -0.04575289 45.40148806      6     13    0    0    0
C -0.51490406 -1.37460033 44.82443384     1     12    14    15    16
H -0.24758156 -3.33390182 45.13742420     6     13    0    0    0
H -2.00292159 -0.59521036 45.90483309     6     13    0    0    0
C -0.92034942 -1.10581053 41.99228477     2     13    17    18    19
H 0.88562290 -1.50986253 40.91006481     6     16    0    0    0
H -2.29133183 -2.54230757 41.46790658     6     16    0    0    0
C -1.92783588 1.31909503 41.01437266     2     16    20   21   22
H -3.64749591 1.51070385 42.05729354     6     19    0    0    0
H -0.65460886 2.77496142 41.51832428     6     19    0    0    0
C -2.54894572 1.28218750 38.15037739     2     19   23   24   25
H -0.77003123 1.67404802 37.22710236     6    22    0    0    0
H -3.25562084 -0.56440239 37.56508948     6    22    0    0    0
C -4.42128244 3.31576226 37.20897098     2    22   26   27   28
H -5.81941546 3.70965346 38.62033992     6    25    0    0    0
H -3.49232894 5.22302551 36.97221014     6    25    0    0    0
C -5.67367530 2.48127906 34.69535143     2    25   29   30   31
H -4.24629667 1.63947517 33.41090718     6    28    0    0    0
H -6.99532793 1.01443199 35.19655251     6    28    0    0    0
C -6.91751418 4.83133257 33.60488251     2    28   32   33   34
H -8.08272889 5.74507506 35.06215994     6    31    0    0    0
H -5.68778030 6.29655848 32.94271071     6    31    0    0    0
C -8.51925369 4.07081004 31.41442590     2    31   35   36   37
H -7.21027953 2.92864529 30.33109267     6    34    0    0    0
H -9.96216745 2.63892690 31.95136604     6    34    0    0    0
C -9.31192400 6.31084517 29.81708830     2    34   38   39   40
H -10.10587152 7.94532182 30.80441167     6    37    0    0    0
H -7.40563327 6.99501292 29.04427586     6    37    0    0    0
C -10.98134567 5.26234098 27.75552711     2    37   41   42   43
H -10.04125362 3.62872330 26.64645711     6    40    0    0    0
H -12.64473174 4.28136474 28.57334874     6    40    0    0    0
C -11.94981878 7.28387407 26.05139427     2    40   44   45   46
H -12.58587580 8.77599530 27.40465064     6    43    0    0    0
H -10.30863061 7.96409385 25.14453673     6    43    0    0    0
C -13.68421909 6.17340702 24.00386625     1    43   47   48   49
H -12.65426323 4.78464581 22.80645071     6    46    0    0    0
H -14.24920423 7.63014170 22.70637591     6    46    0    0    0
H -15.22687827 5.04518319 24.68632015     6    46    0    0    0
H -22.65323300 10.64916567 33.84574016     6     51    0    0    0
C -22.59280561 12.50084033 34.66238986     1     50    52    53    54
H -23.73866006 13.87412909 33.52378003     6     51    0    0    0
H -23.08975577 12.18537445 36.57561015     6     51    0    0    0
C -19.84183097 13.62036249 34.60099452     2     51    55    56    57
H -19.56299091 14.68842744 36.33873965     6     54    0    0    0
H -18.43704743 12.11131575 34.83298379     6     54    0    0    0
C -19.16050936 15.02244776 32.15044440     2     54    58   59   60
H -20.40444047 16.61378891 32.13313793     6     57    0    0    0
H -17.24621491 15.55498005 32.25954424     6     57    0    0    0
C -19.71012542 13.26613002 29.79209304     2     57   61   62   63
H -19.27987489 11.38807583 30.35889239     6    60    0    0    0
H -21.66532113 13.56105967 29.21477641     6    60    0    0    0
C -17.95912188 14.04850588 27.62348851     2    60   64   65   66
H -18.03415982 16.00857933 26.71737961     6    63    0    0    0
H -16.04863072 14.14849186 28.44415262     6    63    0    0    0
C -18.12251448 12.25396502 25.31782309     2    63   67   68   69
H -16.62558242 12.76458266 23.95424947     6    66    0    0    0
H -17.76375604 10.38742276 26.04894603     6    66    0    0    0
C -20.56243936 12.47956766 23.71959990     2    66   70   71   72
H -22.40922036 12.33647122 24.78624230     6    69    0    0    0
H -20.53516315 14.42396484 22.97003931     6    69    0    0    0
C -20.51985739 10.65909025 21.36698989     2    69   73   74   75
H -19.27911953 11.60810928 20.01856448     6    72    0    0    0
H -19.56471467 8.91022173 21.87880214     6    72    0    0    0
C -23.25036364 10.21521449 20.48553964     2    72   76   77   78
H -24.70884917 9.67316402 21.93499716     6    75    0    0    0
H -23.85810597 12.15585834 19.99834046     6    75    0    0    0
C -23.36938534 8.45660806 18.21368494     2    75   79   80   81
H -21.97378641 9.34195743 16.75727145     6    78    0    0    0
H -22.86029482 6.62730743 18.75809592     6    78    0    0    0
C -26.02207281 8.49761592 17.22027031     2    78   82   83   84
H -27.41941444 7.50770014 18.51497875     6    81    0    0    0
H -26.75364799 10.42783066 16.94512190     6    81    0    0    0
C -26.16973122 7.52823911 14.48891668     1    81   85   86   87
H -28.15223855 7.05051280 13.95698039     6    84    0    0    0
H -25.24397582 5.68570832 14.20383491     6    84    0    0    0
H -25.33023182 8.61183612 12.97426662     6    84    0    0    0
H 9.80315587 13.77522625 30.13943542     6     89    0    0    0
C 9.56977421 12.12412415 28.96030447     1     88    90    91    92
H 11.34005892 11.92843891 27.92813163     6     89    0    0    0
H 9.17613042 10.60965619 30.38917272     6     89    0    0    0
C 7.23391264 12.77648712 27.47724129     2     89    93    94    95
H 5.53891292 12.61230813 28.59784136     6     92    0    0    0
H 7.28346854 14.79174010 27.04697267     6     92    0    0    0
C 7.06983829 11.30672224 25.05297234     2     92    96   97   98
H 8.98477672 11.10998050 24.26608883     6     95    0    0    0
H 6.12068323 9.46423333 25.12391607     6     95    0    0    0
C 5.56132538 12.73144163 23.00231184     2     95   99   100   101
H 3.70520538 13.21363653 23.75257096     6    98    0    0    0
H 6.78232535 14.41858592 22.55871233     6    98    0    0    0
C 5.52570998 11.02472181 20.56075188     2    98   102   103   104
H 7.47338784 10.54657815 19.82438874     6    101    0    0    0
H 4.57959764 9.18561941 21.02848657     6    101    0    0    0
C 3.83242910 12.03650118 18.44174760     2    101   105   106   107
H 1.86170515 11.93080135 19.06733385     6    104    0    0    0
H 4.54967759 13.95120193 18.33938102     6    104    0    0    0
C 4.27675968 10.64356579 15.77592390     2    104   108   109   110
H 2.98430269 11.70313526 14.48107943     6    107    0    0    0
H 6.24099262 10.71328920 15.11557211     6    107    0    0    0
C 3.12548338 7.95343186 15.71006648     2    107   111   112   113
H 4.25542979 6.84114197 16.80639655     6    110    0    0    0
H 1.20539998 7.87409956 16.48697209     6    110    0    0    0
C 2.93612312 6.93329151 13.02819855     2    110   114   115   116
H 1.50376478 7.92039574 11.82025065     6    113    0    0    0
H 4.59622676 7.43321438 11.90847287     6    113    0    0    0
C 2.49391337 3.94397015 13.16021015     2    113   117   118   119
H 3.33400384 2.72196643 14.58158213     6    116    0    0    0
H 0.50782504 3.54994229 13.55586331     6    116    0    0    0
C 3.37844776 2.71874940 10.60769184     2    116   120   121   122
H 2.57639071 0.79341538 10.22195718     6    119    0    0    0
H 2.89541592 3.97753674 9.06038117     6    119    0    0    0
C 6.28107338 2.30784590 10.14028686     1    119   123   124   125
H 6.52774222 1.59527754 8.22304955     6    122    0    0    0
H 6.89133690 1.09707281 11.65603762     6    122    0    0    0
H 7.28386248 4.03789969 10.27475249     6    122    0    0    0
H 1.73648984 28.87156329 41.49275668     6     127    0    0    0
C 2.52953782 27.19996151 42.40772028     1     126    128    129    130
H 2.93889479 25.46480345 41.18589782     6     127    0    0    0
H 4.02942110 27.99703635 43.32442412     6     127    0    0    0
C 0.57464980 26.26901679 44.27705903     2     127    131    132    133
H -0.40322590 24.66898256 43.25226094     6     130    0    0    0
H 1.51237906 25.22195173 45.80391364     6     130    0    0    0
C -1.24287833 28.23108245 45.62188755     2     130    134   135   136
H -0.29343605 29.97156272 46.35031798     6     133    0    0    0
H -2.39546837 29.06158555 44.12763913     6     133    0    0    0
C -2.96062751 27.13370772 47.66451809     2     133   137   138   139
H -4.30768514 25.89372375 46.70085318     6    136    0    0    0
H -1.86322219 26.26916353 49.07077093     6    136    0    0    0
C -4.52156911 29.05227043 49.31504217     2    136   140   141   142
H -3.58148802 30.82506944 49.81578058     6    139    0    0    0
H -6.06693109 29.72093468 48.08692610     6    139    0    0    0
C -5.41673438 28.02566059 51.92826643     2    139   143   144   145
H -6.31083437 26.15370734 51.93640648     6    142    0    0    0
H -3.77835824 27.78722149 53.12412406     6    142    0    0    0
C -7.09280813 30.12266096 53.17576023     2    142   146   147   148
H -6.22275597 31.93441518 53.33764013     6    145    0    0    0
H -8.81243453 30.63290040 52.23897512     6    145    0    0    0
C -7.97972879 29.19284077 55.76240375     2    145   149   150   151
H -9.11329928 27.60026949 55.40199286     6    148    0    0    0
H -6.39423463 28.43805916 56.73281618     6    148    0    0    0
C -9.49514427 31.24119190 57.27138098     2    148   152   153   154
H -8.02139631 32.72775222 57.65447582     6    151    0    0    0
H -11.11327720 31.70574395 55.94681936     6    151    0    0    0
C -10.48199985 30.28185941 59.82881221     2    151   155   156   157
H -11.25949691 28.42315953 59.51371967     6    154    0    0    0
H -8.85662143 30.13519601 61.06380938     6    154    0    0    0
C -12.55671068 31.94925929 60.89625205     2    154   158   159   160
H -11.69566648 33.71428306 61.20128844     6    157    0    0    0
H -14.21278082 32.06067635 59.49637403     6    157    0    0    0
C -13.54281486 31.16071238 63.47034103     1    157   161   162   163
H -14.87751231 32.44668739 64.27476263     6    160    0    0    0
H -11.97167859 30.85854205 64.71760461     6    160    0    0    0
H -14.81880950 29.52941543 63.35514404     6    160    0    0    0
H 0.54629064 45.42825052 33.07290316     6     165    0    0    0
C 1.23902659 44.83337043 34.84597516     1     164    166    167    168
H 1.81403464 42.92536593 34.50533380     6     165    0    0    0
H 2.86432411 45.99540083 35.35882951     6     165    0    0    0
C -0.30720729 45.06337810 37.24180793     2     165    169    170    171
H -0.97237759 46.97410750 37.27338966     6     168    0    0    0
H -1.82542094 43.61710929 37.02672209     6     168    0    0    0
C 1.33290708 44.24010722 39.58215309     2     168    172   173   174
H 2.22732213 42.37508991 39.37529432     6     171    0    0    0
H 2.85377884 45.63756889 39.62379568     6     171    0    0    0
C 0.03535931 44.46059823 42.20922706     2     171   175   176   177
H -0.44324690 46.42319834 42.38092197     6    174    0    0    0
H -1.65851312 43.30329837 41.97528898     6    174    0    0    0
C 1.58565770 43.48043420 44.33180071     2    174   178   179   180
H 1.77557401 41.52483323 43.84565939     6    177    0    0    0
H 3.41296123 44.36039260 44.49620539     6    177    0    0    0
C 0.13153612 43.69607389 46.79206714     2    177   181   182   183
H 0.19121197 45.74013618 47.07393989     6    180    0    0    0
H -1.73056340 42.81100320 46.40129339     6    180    0    0    0
C 1.50752248 42.50751165 49.06427100     2    180   184   185   186
H 1.32516104 40.47687687 48.92887560     6    183    0    0    0
H 3.41908470 43.15162575 49.35619507     6    183    0    0    0
C 0.00701834 43.02502747 51.46869298     2    183   187   188   189
H -0.24527579 44.87751173 51.98066024     6    186    0    0    0
H -1.78033376 42.43044818 51.12131559     6    186    0    0    0
C 1.15306057 41.68478239 53.89059765     2    186   190   191   192
H 1.80251397 39.73518924 53.76413008     6    189    0    0    0
H 2.65425998 43.10733474 54.50705707     6    189    0    0    0
C -0.91391138 41.44322433 55.94020420     2    189   193   194   195
H -1.45759578 43.35007732 56.76972154     6    192    0    0    0
H -2.57178962 40.39563001 55.30684333     6    192    0    0    0
C 0.04351654 40.02835163 58.18936074     2    192   196   197   198
H 0.63914649 38.19668291 57.34323729     6    195    0    0    0
H 1.85442219 40.66131156 59.12266161     6    195    0    0    0
C -2.03399349 39.42744047 60.13447245     1    195   199   200   201
H -1.31530076 38.26765036 61.76176648     6    198    0    0    0
H -3.40135064 38.28052549 59.25378965     6    198    0    0    0
H -3.08582472 40.94261489 60.92955300     6    198    0    0    0
H -10.77029881 35.30045091 27.69686433     6     203    0    0    0
C -10.70393519 33.29732357 27.66737012     1     202    204    205    206
H -10.77921861 32.59497892 29.63249193     6     203    0    0    0
H -12.20211616 32.63216895 26.34791338     6     203    0    0    0
C -8.16187110 32.69644563 26.33724486     2     203    207    208    209
H -6.85162958 34.34301577 26.81802063     6     206    0    0    0
H -7.39312463 31.19254712 27.31395314     6     206    0    0    0
C -8.06538807 32.15785913 23.43478373     2     206    210   211   212
H -6.06957516 32.15000606 23.00709057     6     209    0    0    0
H -8.82845901 30.29282914 23.17327891     6     209    0    0    0
C -9.74495883 33.68498125 21.69580697     2     209   213   214   215
H -11.64556386 33.79336278 22.42021646     6    212    0    0    0
H -9.14838880 35.52122962 21.72948121     6    212    0    0    0
C -9.95128187 32.63221084 18.96524169     2    212   216   217   218
H -8.00076903 32.10075570 18.54770166     6    215    0    0    0
H -11.20585820 31.06059486 18.75225997     6    215    0    0    0
C -10.97221570 34.56656081 17.17929521     2    215   219   220   221
H -12.74439883 35.07552466 18.11264056     6    218    0    0    0
H -9.63569118 36.17682665 17.17152989     6    218    0    0    0
C -11.38017942 33.64890084 14.49647124     2    218   222   223   224
H -9.71415401 32.95993254 13.53972020     6    221    0    0    0
H -12.53998155 32.03378382 14.52453483     6    221    0    0    0
C -12.34866042 35.75656921 12.71349453     2    221   225   226   227
H -11.12329192 37.51679552 12.66359897     6    224    0    0    0
H -12.22858127 34.97629970 10.79747598     6    224    0    0    0
C -14.93728820 36.88714232 13.30252740     2    224   228   229   230
H -16.18625163 35.26401252 13.74098842     6    227    0    0    0
H -14.72239474 38.06393563 15.04060818     6    227    0    0    0
C -16.11780369 38.58027015 11.36550722     2    227   231   232   233
H -15.03746523 40.10462560 10.82546467     6    230    0    0    0
H -16.53855321 37.31840777 9.67145028     6    230    0    0    0
C -18.57734152 39.80717824 12.37003043     2    230   234   235   236
H -19.94024601 38.59859271 13.26234739     6    233    0    0    0
H -17.84630369 41.27860260 13.74738010     6    233    0    0    0
C -19.93888634 41.09592836 10.17601379     1    233   237   238   239
H -18.54064624 41.72822258 8.69328950     6    236    0    0    0
H -21.07964077 42.63216772 10.74744140     6    236    0    0    0
H -21.36498357 39.68347898 9.18139561     6    236    0    0    0
H -16.54583236 11.05900145 14.54682179     6     241    0    0    0
C -14.83602859 11.59014761 15.43051517     1     240    242    243    244
H -14.23801049 13.45638175 14.66928085     6     241    0    0    0
H -15.22376291 11.79820989 17.48770327     6     241    0    0    0
C -12.77591452 9.58866746 15.06770463     2     241    245    246    247
H -12.37520211 9.17299251 13.01705120     6     244    0    0    0
H -10.90339587 10.32954294 15.55149201     6     244    0    0    0
C -13.21190951 7.08322300 16.36979037     2     244    248   249   250
H -11.46651878 6.05838704 16.49334183     6     247    0    0    0
H -13.43697102 7.26978272 18.43420852     6     247    0    0    0
C -15.14321251 5.19825616 15.21404000     2     247   251   252   253
H -14.75008326 3.54703295 16.12630445     6    250    0    0    0
H -17.11689630 5.72089505 15.89588188     6    250    0    0    0
C -15.05827923 4.57944881 12.30790208     2    250   254   255   256
H -14.62003351 6.25636212 11.17318170     6    253    0    0    0
H -13.45245887 3.33987403 12.10601353     6    253    0    0    0
C -17.30547695 3.25736635 11.26365910     2    253   257   258   259
H -16.56276203 2.43232203 9.49259134     6    256    0    0    0
H -17.81119929 1.80603283 12.62244571     6    256    0    0    0
C -19.69613897 5.00402525 10.61519940     2    256   260   261   262
H -20.61620419 5.71871699 12.21274093     6    259    0    0    0
H -18.88493776 6.60661347 9.56136109     6    259    0    0    0
C -21.58739826 3.46829232 9.17326406     2    259   263   264   265
H -20.67922119 2.57648260 7.60460919     6    262    0    0    0
H -22.31530739 1.83565080 10.29171088     6    262    0    0    0
C -23.82886101 5.00854224 8.14357885     2    262   266   267   268
H -25.39665697 5.36953677 9.51864324     6    265    0    0    0
H -23.14802419 6.85268095 7.63068300     6    265    0    0    0
C -25.12251210 3.87881130 5.80751575     2    265   269   270   271
H -23.85036853 3.43539900 4.22536526     6    268    0    0    0
H -26.05632994 2.07184207 6.15598076     6    268    0    0    0
C -26.94280791 5.77364216 4.64070149     2    268   272   273   274
H -28.63500463 5.90677568 5.84396152     6    271    0    0    0
H -26.20988140 7.69126808 4.69358545     6    271    0    0    0
C -27.73242003 4.88694117 1.92382981     1    271   275   276   277
H -26.72720427 5.41170843 0.24313402     6    274    0    0    0
H -29.35373324 6.04623825 1.46872787     6    274    0    0    0
H -28.30249147 2.82215366 1.88906127     6    274    0    0    0
H -2.09623687 31.43340562 19.78239152     6     279    0    0    0
C -2.51759290 29.83555594 18.56683030     1     278    280    281    282
H -3.68489554 30.53662240 17.06319484     6     279    0    0    0
H -0.61313649 29.40753705 17.73257647     6     279    0    0    0
C -3.55708924 27.66972351 20.18920672     2     279    283    284    285
H -2.00732265 26.65224067 20.85677906     6     282    0    0    0
H -4.67244596 28.35223547 21.72908830     6     282    0    0    0
C -5.03895580 25.79420186 18.46639856     2     282    286   287   288
H -3.97440683 25.43812103 16.71964788     6     285    0    0    0
H -5.15951700 23.86701720 19.35118836     6     285    0    0    0
C -7.59827516 26.81734123 17.68536443     2     285   289   290   291
H -8.60906878 27.37306007 19.28406020     6    288    0    0    0
H -7.06487936 28.37376362 16.60252818     6    288    0    0    0
C -8.84119327 25.17914028 15.82592806     2    288   292   293   294
H -7.71207516 24.65372763 14.18164395     6    291    0    0    0
H -9.22643909 23.23936753 16.51768194     6    291    0    0    0
C -11.40094972 26.37987230 15.11385663     2    291   295   296   297
H -12.43104477 26.55181977 16.91804111     6    294    0    0    0
H -11.22019463 28.24939794 14.46350884     6    294    0    0    0
C -13.12976638 24.81926981 13.36805648     2    294   298   299   300

   17   -1830.5062184964      3.44E-09 Convergence criterion met
 Total energy in the final basis set = -1828.20176164
 Total job time:  16.86s(wall), 30.75s(cpu)
        *  Thank you very much for using Q-Chem.  Have a nice day.  *

User input: 2 of 2

                  Welcome to Q-Chem
     A Quantum Leap Into The Future Of Chemistry

 Q-Chem 5.4 (devel), Q-Chem, Inc., Pleasanton, CA (2021)

 E. Epifanovsky,  A. T. B. Gilbert,  Xintian Feng,  Joonho Lee,  Yuezhi Mao,
 N. Mardirossian,  P. Pokhilko,  A. White,  M. Wormit,  M. P. Coons,
 A. L. Dempwolff,  Zhengting Gan,  D. Hait,  P. R. Horn,  L. D. Jacobson,
 I. Kaliman,  J. Kussmann,  A. W. Lange,  Ka Un Lao,  D. S. Levine,  Jie Liu,
 S. C. McKenzie,  A. F. Morrison,  K. Nanda,  F. Plasser,  D. R. Rehn,
 M. L. Vidal,  Zhi-Qiang You,  Ying Zhu,  B. Alam,  B. Albrecht,
 A. Aldossary,  E. Alguire,  J. H. Andersen,  D. Barton,  K. Begam,  A. Behn,
 Y. A. Bernard,  E. J. Berquist,  H. Burton,  A. Carreras,  K. Carter-Fenk,
 R. Chakraborty,  A. D. Chien,  K. D. Closser,  V. Cofer-Shabica,
 S. Dasgupta,  Jia Deng,  M. de Wergifosse,  M. Diedenhofen,  Hainam Do,
 S. Ehlert,  Po-Tung Fang,  S. Fatehi,  Qingguo Feng,  T. Friedhoff,
 J. Gayvert,  Qinghui Ge,  G. Gidofalvi,  M. Goldey,  J. Gomes,
 C. Gonzalez-Espinoza,  S. Gulania,  A. Gunina,  M. W. D. Hanson-Heine,
 P. H. P. Harbach,  A. W. Hauser,  M. F. Herbst,  M. Hernandez Vera,
 M. Hodecker,  Z. C. Holden,  S. Houck,  Xunkun Huang,  Kerwin Hui,
 B. C. Huynh,  M. Ivanov,  Hyunjun Ji,  Hanjie Jiang,  B. Kaduk,  S. Kaehler,
 K. Khistyaev,  Jaehoon Kim,  P. Klunzinger,  Z. Koczor-Benda,
 Joong Hoon Koh,  D. Kosenkov,  L. Koulias,  T. Kowalczyk,  C. M. Krauter,
 K. Kue,  A. Kunitsa,  T. Kus,  A. Landau,  K. V. Lawler,  D. Lefrancois,
 S. Lehtola,  Rain Li,  Yi-Pei Li,  Jiashu Liang,  M. Liebenthal,
 Hung-Hsuan Lin,  You-Sheng Lin,  Fenglai Liu,  Kuan-Yu Liu,
 M. Loipersberger,  A. Luenser,  A. Manjanath,  P. Manohar,  E. Mansoor,
 S. F. Manzer,  Shan-Ping Mao,  A. V. Marenich,  T. Markovich,  S. Mason,
 S. A. Maurer,  P. F. McLaughlin,  M. F. S. J. Menger,  J.-M. Mewes,
 S. A. Mewes,  P. Morgante,  J. W. Mullinax,  K. J. Oosterbaan,  G. Paran,
 Alexander C. Paul,  Suranjan K. Paul,  F. Pavosevic,  Zheng Pei,  S. Prager,
 E. I. Proynov,  E. Ramos,  B. Rana,  A. E. Rask,  A. Rettig,  R. M. Richard,
 F. Rob,  E. Rossomme,  T. Scheele,  M. Scheurer,  M. Schneider,
 N. Sergueev,  S. M. Sharada,  W. Skomorowski,  D. W. Small,  C. J. Stein,
 Yu-Chuan Su,  E. J. Sundstrom,  Zhen Tao,  J. Thirman,  T. Tsuchimochi,
 N. M. Tubman,  S. P. Veccham,  O. Vydrov,  J. Wenzel,  J. Witte,  A. Yamada,
 Kun Yao,  S. Yeganeh,  S. R. Yost,  A. Zech,  Igor Ying Zhang,  Xing Zhang,
 Yu Zhang,  D. Zuev,  A. Aspuru-Guzik,  A. T. Bell,  N. A. Besley,
 K. B. Bravaya,  B. R. Brooks,  D. Casanova,  Jeng-Da Chai,  S. Coriani,
 C. J. Cramer,  A. E. DePrince, III,  R. A. DiStasio Jr.,  A. Dreuw,
 B. D. Dunietz,  T. R. Furlani,  W. A. Goddard III,  S. Grimme,
 S. Hammes-Schiffer,  T. Head-Gordon,  W. J. Hehre,  Chao-Ping Hsu,
 T.-C. Jagau,  Yousung Jung,  A. Klamt,  Jing Kong,  D. S. Lambrecht,
 WanZhen Liang,  N. J. Mayhall,  C. W. McCurdy,  J. B. Neaton,
 C. Ochsenfeld,  J. A. Parkhill,  R. Peverati,  V. A. Rassolov,  Yihan Shao,
 L. V. Slipchenko,  T. Stauch,  R. P. Steele,  J. E. Subotnik,
 A. J. W. Thom,  A. Tkatchenko,  D. G. Truhlar,  T. Van Voorhis,
 T. A. Wesolowski,  K. B. Whaley,  H. L. Woodcock III,  P. M. Zimmerman,
 S. Faraji,  P. M. W. Gill,  M. Head-Gordon,  J. M. Herbert,  A. I. Krylov

 Additional authors for Version 5.4.1:
 S. Kotaru,  Shaozhi Li,  Xiangyuan Li,  F. Matz,  A. Molle,  Haisheng Ren,
 Yingli Su,  Hung-Yi Tsai,  C. Utku,  Fang Wang

 Contributors to earlier versions of Q-Chem not listed above:
 R. D. Adamson,  B. Austin,  R. Baer,  J. Baker,  G. J. O. Beran,
 K. Brandhorst,  S. T. Brown,  E. F. C. Byrd,  A. K. Chakraborty,
 G. K. L. Chan,  Chun-Min Chang,  Yunqing Chen,  C.-L. Cheng,
 Siu Hung Chien,  D. M. Chipman,  D. L. Crittenden,  H. Dachsel,
 R. J. Doerksen,  A. D. Dutoi,  R. G. Edgar,  J. Fosso-Tande,
 L. Fusti-Molnar,  D. Ghosh,  A. Ghysels,  A. Golubeva-Zadorozhnaya,
 J. Gonthier,  M. S. Gordon,  S. R. Gwaltney,  G. Hawkins,  J. E. Herr,
 A. Heyden,  S. Hirata,  E. G. Hohenstein,  G. Kedziora,  F. J. Keil,
 C. Kelley,  Jihan Kim,  R. A. King,  R. Z. Khaliullin,  P. P. Korambath,
 W. Kurlancheek,  A. Laurent,  A. M. Lee,  M. S. Lee,  S. V. Levchenko,
 Ching Yeh Lin,  D. Liotard,  E. Livshits,  R. C. Lochan,  I. Lotan,
 L. A. Martinez-Martinez,  P. E. Maslen,  N. Nair,  D. P. O'Neill,
 D. Neuhauser,  E. Neuscamman,  C. M. Oana,  R. Olivares-Amaya,  R. Olson,
 T. M. Perrine,  B. Peters,  P. A. Pieniazek,  A. Prociuk,  Y. M. Rhee,
 J. Ritchie,  M. A. Rohrdanz,  E. Rosta,  N. J. Russ,  H. F. Schaefer III,
 M. W. Schmidt,  N. E. Schultz,  S. Sharma,  N. Shenvi,  C. D. Sherrill,
 A. C. Simmonett,  A. Sodt,  T. Stein,  D. Stuck,  K. S. Thanthiriwatte,
 V. Vanovschi,  L. Vogt,  Tao Wang,  A. Warshel,  M. A. Watson,
 C. F. Williams,  Q. Wu,  X. Xu,  Jun Yang,  W. Zhang,  Yan Zhao

 Please cite Q-Chem as follows:
 Y. Shao et al., Mol. Phys. 113, 184-215 (2015)
 DOI: 10.1080/00268976.2014.952696

 Q-Chem 5.4.1 for Intel X86 EM64T Linux

 Parts of Q-Chem use Armadillo 9.900.5 (Nocturnal Misbehaviour).
 http://arma.sourceforge.net/

 Q-Chem begins on Wed Jun 22 16:41:41 2022

 Host: p09r14n13.grace.hpc.yale.internal
0

     Scratch files written to /home/tl686/scratch60/qchem_dev/scratch/qchem247285//
 Processing $rem in /home/tl686/qchem_dev/qchem/config/preferences:
 Processing $rem in /home/tl686/.qchemrc:
Applying user defined connections for MM calculations
The previous job contains 0 fragments, simply inherited here

 Checking the input file for inconsistencies... 	...done.

--------------------------------------------------------------
User input:
--------------------------------------------------------------

$molecule
READ
$end

$qm_atoms
1:11
$end

$force_field_params
NumAtomTypes 3
AtomType -1   0.0238     3.11   0.2868
AtomType -2   0.07124    3.30   0.6597
AtomType -3  -0.0760     3.09   0.1434
$end

$rem
     JOBTYPE  freq
     METHOD   bp86
     BASIS    def2-msvp
     MAX_SCF_CYCLES   800
     INPUT_BOHR TRUE
     SYM_IGNORE TRUE
     SCF_GUESS     read
     user_connect            true
     qm_mm_interface         ONIOM
     force_field             oplsaa
$end

--------------------------------------------------------------

    2   -1830.5062184960      7.01E-09 Convergence criterion met
 Total energy in the final basis set = -1828.20176164

                    Orbital Energies (a.u.)
 --------------------------------------------------------------

 Alpha MOs
 -- Occupied --
******** -29.6410 -25.6000 -25.5874 -25.5855 -18.8951 -18.8888 -18.8835
-18.8726 -18.8693 -10.0736 -10.0545 -10.0527 -10.0471 -10.0405  -3.3273
 -2.1612  -2.1380  -2.1334  -1.0673  -1.0550  -1.0498  -1.0362  -1.0168
 -0.5854  -0.5314  -0.5272  -0.5174  -0.5154  -0.4613  -0.4524  -0.4398
 -0.4396  -0.4334  -0.4297  -0.4219  -0.4178  -0.4103  -0.4070  -0.4029
 -0.3973  -0.3944  -0.3921  -0.3784  -0.2834  -0.2757  -0.2411  -0.2256

          Ground-State Mulliken Net Atomic Charges

     Atom                 Charge (a.u.)
  ----------------------------------------
      1 Fe                   -0.451837
      2 C                     0.212271
      3 C                     0.204212
      4 C                     0.212187
      5 C                     0.212135
      6 C                     0.237582
      7 O                    -0.123309
      8 O                    -0.121650
      9 O                    -0.092047
     10 O                    -0.134773
     11 O                    -0.154771
  ----------------------------------------
  Sum of atomic charges =     0.000000

                    Cartesian Multipole Moments
 -----------------------------------------------------------------
    Charge (ESU x 10^10)
                -0.0000
    Dipole Moment (Debye)
         X       0.6023954025      Y      -0.3418884682      Z       0.5545562068
       Tot       0.8872995729
    Quadrupole Moments (Debye-Ang)
        XX     -85.0526     XY       9.2819     YY     -76.5184
        XZ       6.3680     YZ      -1.3791     ZZ     -46.2330
