 Q-Chem 5.4 (devel), Q-Chem, Inc., Pleasanton, CA (2021)
 Q-Chem 5.4.1 for Intel X86 EM64T Linux

User input:
--------------------------------------------------------------
$molecule
0   1
 Fe 109.28767993 -4.83298732 37.50223051    -1  0   0   0   0
C 111.23953999 -7.08445918 38.77935257    -2  0   0   0   0
C 106.43429878 -5.06703102 35.58147514    -2  0   0   0   0
C 110.21903260 -1.72123315 38.49521045    -2  0   0   0   0
C 111.14270884 -4.49618129 34.67629309    -2  0   0   0   0
C 107.10271570 -5.56719529 39.99204165    -2  0   0   0   0
O 112.50413639 -8.71467214 39.67011732    -3  0   0   0   0
O 104.57953307 -5.21854495 34.38772885    -3  0   0   0   0
O 111.09653885 0.16621807 39.02816247    -3  0   0   0   0
O 112.15321938 -4.27465380 32.69469606    -3  0   0   0   0
O 105.47989864 -5.91895570 41.55761265    -3  0   0   0   0
H 137.81984190 -3.61879996 46.57580805      6     13    0    0    0
C 139.15458459 -5.07899203 47.13959929     1     12    14    15    16
H 141.08654957 -4.28994287 46.68722975     6     13    0    0    0
H 139.02591874 -5.38783997 49.14559315     6     13    0    0    0
C 138.85112237 -7.56716391 45.74046520     2     13    17    18    19
H 139.17184129 -7.17337905 43.71191339     6     16    0    0    0
H 140.24762616 -8.87561304 46.49047219     6     16    0    0    0
C 136.12105630 -8.55449213 46.13317170     2     16    20   21   22
H 135.50412689 -8.32885624 48.11962257     6     19    0    0    0
H 134.61494273 -7.51668380 45.04389319     6     19    0    0    0
C 135.60610756 -11.35158912 45.22422155     2     19   23   24   25
H 136.78468351 -11.79504384 43.53552686     6    22    0    0    0
H 136.39385205 -12.70048167 46.51134825     6    22    0    0    0
C 132.83487739 -11.76518806 44.38409049     2    22   26   27   28
H 131.71554625 -11.64697451 46.04034940     6    25    0    0    0
H 132.21618378 -10.31935525 42.95793528     6    25    0    0    0
C 132.43206572 -14.48086510 43.23771252     2    25   29   30   31
H 133.58106359 -14.51740102 41.55354088     6    28    0    0    0
H 133.08143719 -16.00123728 44.60023232     6    28    0    0    0
C 129.70606482 -15.09630271 42.65470205     2    28   32   33   34
H 128.87599101 -15.44643335 44.55293435     6    31    0    0    0
H 128.75746263 -13.45965085 41.78306657     6    31    0    0    0
C 129.51152815 -17.46957444 40.81329461     2    31   35   36   37
H 130.21918834 -16.86321082 38.91377745     6    34    0    0    0
H 130.87764478 -18.75717621 41.73863737     6    34    0    0    0
C 126.72569518 -18.22187558 40.55041336     2    34   38   39   40
H 125.95092212 -18.53792042 42.34326555     6    37    0    0    0
H 125.66814815 -16.54620385 39.75982751     6    37    0    0    0
C 126.49498481 -20.35307004 38.58960773     2    37   41   42   43
H 127.53031390 -19.89654565 36.82350519     6    40    0    0    0
H 127.36880823 -22.06570971 39.28831974     6    40    0    0    0
C 123.69984045 -20.63958934 37.90061404     2    40   44   45   46
H 122.60471934 -21.36060052 39.45119293     6    43    0    0    0
H 123.01731767 -18.70568878 37.38754784     6    43    0    0    0
C 123.25055706 -22.09683641 35.47471428     1    43   47   48   49
H 124.18687008 -21.44822317 33.81319219     6    46    0    0    0
H 121.26704806 -22.27191229 35.11892415     6    46    0    0    0
H 123.85926040 -24.00987947 35.62558987     6    46    0    0    0
H 116.60447408 -16.71753024 36.68041913     6     51    0    0    0
C 115.64946944 -14.96367073 36.36765379     1     50    52    53    54
H 113.83361627 -15.32973999 35.39767693     6     51    0    0    0
H 115.15122805 -14.00074630 38.15835156     6     51    0    0    0
C 117.29206953 -13.21877576 34.62796636     2     51    55    56    57
H 116.15229120 -11.60133214 34.80736547     6     54    0    0    0
H 119.02458879 -12.76721632 35.52914620     6     54    0    0    0
C 117.50211506 -14.24189403 31.95150386     2     54    58   59   60
H 115.49161682 -14.31368811 31.18504771     6     57    0    0    0
H 118.55315008 -12.75501182 30.82380447     6     57    0    0    0
C 118.58578074 -16.95383120 31.94342596     2     57   61   62   63
H 120.29650242 -16.80910034 33.03501382     6    60    0    0    0
H 117.25783414 -18.30333892 32.76683811     6    60    0    0    0
C 119.25115781 -17.75953949 29.27839090     2    60   64   65   66
H 117.60877107 -17.74689084 28.15519134     6    63    0    0    0
H 120.47169468 -16.28481342 28.42637500     6    63    0    0    0
C 120.54946526 -20.38876197 28.99920564     2    63   67   68   69
H 121.34886930 -20.35727960 27.09599454     6    66    0    0    0
H 122.03035799 -20.79066073 30.27257064     6    66    0    0    0
C 118.50096590 -22.64566804 28.97974684     2    66   70   71   72
H 117.45304866 -22.52771982 30.68346536     6    69    0    0    0
H 117.09533044 -22.34767963 27.39390909     6    69    0    0    0
C 119.67381476 -25.23884432 29.08792390     2    69   73   74   75
H 121.20269103 -25.36863829 27.67901109     6    72    0    0    0
H 120.41167952 -25.58666251 30.95668803     6    72    0    0    0
C 117.78545086 -27.28379316 28.73203826     2    72   76   77   78
H 116.26990815 -27.23156396 30.29621454     6    75    0    0    0
H 116.92426935 -26.99006659 26.77987875     6    75    0    0    0
C 118.93495670 -29.99092965 28.29678899     2    75   79   80   81
H 119.97219607 -30.15418684 26.55752396     6    78    0    0    0
H 120.25543723 -30.55544959 29.69708048     6    78    0    0    0
C 117.02800160 -32.05178706 28.02933603     2    78   82   83   84
H 115.95008284 -32.68748963 29.77370799     6    81    0    0    0
H 115.57421082 -31.67424372 26.63882915     6    81    0    0    0
C 118.45954691 -34.42425630 27.27818990     1    81   85   86   87
H 117.26456980 -36.02630498 26.53446874     6    84    0    0    0
H 119.50264552 -35.17243307 28.78235496     6    84    0    0    0
H 119.90384774 -34.07706257 25.89433701     6    84    0    0    0
H 142.52412562 -0.17430964 31.44459920     6     89    0    0    0
C 141.07167480 -1.22872916 30.40645913     1     88    90    91    92
H 139.54416629 -1.64833167 31.79918214     6     89    0    0    0
H 140.32032264 -0.00112711 28.97736049     6     89    0    0    0
C 142.29025573 -3.47640679 28.99570786     2     89    93    94    95
H 141.75184658 -3.21157810 27.05366619     6     92    0    0    0
H 144.28077254 -3.65493936 29.34070187     6     92    0    0    0
C 140.95736249 -5.89085573 29.96135149     2     92    96   97   98
H 141.19875978 -5.97863017 31.97778992     6     95    0    0    0
H 138.87483200 -5.65395009 29.65939784     6     95    0    0    0
C 142.12311388 -8.29908254 28.88188398     2     95   99   100   101
H 142.72735356 -8.00654880 26.97772244     6    98    0    0    0
H 143.88010381 -8.38369159 30.01963914     6    98    0    0    0
C 140.59028290 -10.71732306 28.94164922     2    98   102   103   104
H 139.52972471 -10.86469221 30.73203171     6    101    0    0    0
H 139.07442553 -10.34705503 27.63677768     6    101    0    0    0
C 141.99609107 -13.13558192 28.21858291     2    101   105   106   107
H 142.80438449 -13.06455664 26.34043363     6    104    0    0    0
H 143.75698405 -13.16271933 29.28433594     6    104    0    0    0
C 140.43170908 -15.62628924 28.41595551     2    104   108   109   110
H 140.28593781 -16.14229989 30.38114602     6    107    0    0    0
H 138.37600028 -15.14835110 28.07708065     6    107    0    0    0
C 141.12028362 -17.82366160 26.69746280     2    107   111   112   113
H 141.06578425 -17.18852695 24.84629912     6    110    0    0    0
H 143.18519027 -18.08126633 27.04206904     6    110    0    0    0
C 139.58306065 -20.21867771 27.34065725     2    110   114   115   116
H 139.65989009 -20.46553500 29.40734921     6    113    0    0    0
H 137.64677280 -19.95371838 26.67196055     6    113    0    0    0
C 140.82041478 -22.49296785 26.13964496     2    113   117   118   119
H 141.07805480 -22.12666084 24.00020114     6    116    0    0    0
H 142.65644070 -22.47363750 27.02460421     6    116    0    0    0
C 139.73105688 -25.11336193 26.58621749     2    116   120   121   122
H 141.33141158 -26.35004870 26.35156886     6    119    0    0    0
H 139.16805343 -25.44250687 28.56530341     6    119    0    0    0
C 137.64452561 -25.93754663 24.71204053     1    119   123   124   125
H 137.12478157 -27.72947829 25.12968487     6    122    0    0    0
H 138.59680700 -25.93557634 22.82260738     6    122    0    0    0
H 136.06885438 -24.59116783 24.75332625     6    122    0    0    0
H 132.80386459 15.16663880 16.16076787     6     127    0    0    0
C 131.65804939 13.98458904 17.37347892     1     126    128    129    130
H 130.06062430 13.23869903 16.27916157     6     127    0    0    0
H 132.77629794 12.33493720 17.92883854     6     127    0    0    0
C 130.89514039 15.41239360 19.74977205     2     127    131    132    133
H 132.52705148 16.12984714 20.77907026     6     130    0    0    0
H 130.08467112 17.05156308 18.95779116     6     130    0    0    0
C 129.06249836 13.80534118 21.26198551     2     130    134   135   136
H 127.63700385 13.46185496 19.84394175     6     133    0    0    0
H 129.95647891 11.91488091 21.65007629     6     133    0    0    0
C 127.91480936 14.99688551 23.52217278     2     133   137   138   139
H 129.34960834 15.59428044 24.89079200     6    136    0    0    0
H 126.94351136 16.73810597 23.00659080     6    136    0    0    0
C 126.00074003 13.19200325 24.82400315     2    136   140   141   142
H 124.71926738 12.42023706 23.52714259     6    139    0    0    0
H 127.02364279 11.61013112 25.51176179     6    139    0    0    0
C 124.55522908 14.32313160 27.13739224     2    139   143   144   145
H 125.97414192 14.71351000 28.74644974     6    142    0    0    0
H 123.57138130 15.99312750 26.85729234     6    142    0    0    0
C 122.82257380 12.30885689 28.37194114     2    142   146   147   148
H 121.29847232 11.61729684 27.28375986     6    145    0    0    0
H 123.91028805 10.77159748 28.93382580     6    145    0    0    0
C 121.89846631 13.64509440 30.86901435     2    145   149   150   151
H 123.46613905 14.29790961 31.92759401     6    148    0    0    0
H 120.70462354 15.32135751 30.45838393     6    148    0    0    0
C 120.63677392 11.74643587 32.77294779     2    148   152   153   154
H 118.94470313 10.78020213 31.95625163     6    151    0    0    0
H 121.93128598 10.29099287 33.43866992     6    151    0    0    0
C 119.58737890 13.09709862 35.07468162     2    151   155   156   157
H 120.86321300 14.51255532 35.91824398     6    154    0    0    0
H 117.94639557 14.08416987 34.52911032     6    154    0    0    0
C 118.61175891 11.05095828 36.98930241     2    154   158   159   160
H 117.05493698 9.84218789 36.05313045     6    157    0    0    0
H 120.34382294 9.95029410 37.40247375     6    157    0    0    0
C 117.76973432 12.21321476 39.70066725     1    157   161   162   163
H 116.54404467 10.81148058 40.72982100     6    160    0    0    0
H 116.78922632 13.91582142 39.39537796     6    160    0    0    0
H 119.44012752 12.70718915 40.74977951     6    160    0    0    0
H 124.26943100 -10.36033931 0.79701851     6     165    0    0    0
C 123.83549402 -8.41650866 1.13997292     1     164    166    167    168
H 124.34320419 -7.31495697 -0.57388633     6     165    0    0    0
H 121.85237518 -8.21944767 1.58424015     6     165    0    0    0
C 125.46737747 -7.41284439 3.33943621     2     165    169    170    171
H 125.19695199 -8.33646122 5.22569552     6     168    0    0    0
H 127.35464318 -7.97371168 2.97340588     6     168    0    0    0
C 125.49680785 -4.55621798 3.67160852     2     168    172   173   174
H 124.86476701 -3.63464444 1.76667346     6     171    0    0    0
H 123.93204113 -3.94313274 4.83221178     6     171    0    0    0
C 127.76725919 -3.54556770 5.04640193     2     171   175   176   177
H 127.55330723 -3.94805689 7.06907515     6    174    0    0    0
H 129.42935117 -4.61042779 4.32306366     6    174    0    0    0
C 128.30035374 -0.87406729 4.56207223     2    174   178   179   180
H 128.09832505 -0.50931898 2.62214629     6    177    0    0    0
H 126.64342014 0.19859011 5.21961316     6    177    0    0    0
C 130.69769149 0.01729749 5.76807848     2    177   181   182   183
H 130.59630482 -0.57564520 7.70842084     6    180    0    0    0
H 132.37705580 -0.76187794 5.03182409     6    180    0    0    0
C 130.86084624 2.95661640 5.71837432     2    180   184   185   186
H 131.04460604 3.43951743 3.59361219     6    183    0    0    0
H 128.94425571 3.80793236 5.87609870     6    183    0    0    0
C 132.94234882 4.26464973 7.34709964     2    183   187   188   189
H 132.50020379 4.35489210 9.37240226     6    186    0    0    0
H 134.73521121 3.21933482 7.13083098     6    186    0    0    0
C 133.38723482 7.03677933 6.64856284     2    186   190   191   192
H 133.96164343 6.96321014 4.63589267     6    189    0    0    0
H 131.59305794 8.05733764 6.76210424     6    189    0    0    0
C 135.51304826 8.22792617 8.30516712     2    189   193   194   195
H 135.34421475 7.66025365 10.24661734     6    192    0    0    0
H 137.39886222 7.30678920 7.79138336     6    192    0    0    0
C 135.34474595 11.10497323 8.01386783     2    192   196   197   198
H 136.24869198 11.73201297 6.26419512     6    195    0    0    0
H 133.36064061 11.76361365 7.92918472     6    195    0    0    0
C 136.72961780 12.79820083 10.01134084     1    195   199   200   201
H 136.34056533 14.81491423 9.67992514     6    198    0    0    0
H 138.70163214 12.29878192 10.06341518     6    198    0    0    0
H 135.68349185 12.61275126 11.95736262     6    198    0    0    0
H 119.89226086 -9.48631890 13.27953095     6     203    0    0    0
C 119.43946068 -7.88278622 11.97704803     1     202    204    205    206
H 117.41488453 -7.54630008 11.87726651     6     203    0    0    0
H 120.18841264 -6.29221793 12.88864083     6     203    0    0    0
C 120.66214852 -8.17787973 9.38576140     2     203    207    208    209
H 120.49696074 -6.55158030 8.25561206     6     206    0    0    0
H 122.64451364 -8.26176079 9.81784842     6     206    0    0    0
C 119.83168723 -10.78674335 8.14697949     2     206    210   211   212
H 121.39412873 -11.39463916 6.92125295     6     209    0    0    0
H 119.50344675 -12.34288485 9.47294402     6     209    0    0    0
C 117.37847588 -10.61139540 6.29807609     2     209   213   214   215
H 115.83078344 -9.94611006 7.40736548     6    212    0    0    0
H 118.11140141 -9.04400194 4.92088669     6    212    0    0    0
C 116.69678918 -13.25943767 5.03325160     2    212   216   217   218
H 118.41120603 -14.20264639 4.31872704     6    215    0    0    0
H 115.81528165 -14.40514809 6.45862616     6    215    0    0    0
C 114.89977478 -12.81944989 2.81829401     2    215   219   220   221
H 113.59093594 -11.32886523 3.30281701     6    218    0    0    0
H 116.02356676 -12.00640247 1.27728801     6    218    0    0    0
C 113.30266545 -15.12841652 1.97856141     2    218   222   223   224
H 112.07392385 -14.48003662 0.34789793     6    221    0    0    0
H 114.25246148 -16.87709114 1.18665352     6    221    0    0    0
C 111.48943729 -16.21448101 4.09962720     2    221   225   226   227
H 112.58508952 -17.34173818 5.41668582     6    224    0    0    0
H 110.79117702 -14.39377720 4.87164589     6    224    0    0    0
C 109.26140448 -17.89016708 3.22382953     2    224   228   229   230
H 108.50428032 -17.11257307 1.44566253     6    227    0    0    0
H 110.25220473 -19.70910329 2.70677257     6    227    0    0    0
C 107.12195577 -18.02299376 5.13002399     2    227   231   232   233
H 107.60593725 -18.83375266 6.89803593     6    230    0    0    0
H 106.36973770 -16.12116891 5.49566487     6    230    0    0    0
C 104.76815748 -19.52265443 4.17542149     2    230   234   235   236
H 103.64053794 -18.50563226 2.80562399     6    233    0    0    0
H 105.23319134 -21.38304731 3.43006126     6    233    0    0    0
C 102.82900923 -19.65628160 6.35473155     1    233   237   238   239
H 101.61267201 -18.06015855 6.36347725     6    236    0    0    0
H 103.56621831 -19.98828846 8.07588598     6    236    0    0    0
H 101.70135985 -21.24141647 5.95644137     6    236    0    0    0
H 128.60524876 -29.52709825 26.24174111     6     241    0    0    0
C 129.78227094 -27.79177631 25.76956646     1     240    242    243    244
H 131.32747450 -28.49754760 24.67477224     6     241    0    0    0
H 128.68262617 -26.48417427 24.67894313     6     241    0    0    0
C 131.01913708 -26.34776039 27.94287337     2     241    245    246    247
H 132.22950573 -27.61423347 29.15242878     6     244    0    0    0
H 132.35091009 -25.11029208 27.25600269     6     244    0    0    0
C 128.99079845 -25.09441589 29.61896226     2     244    248   249   250
H 129.88442541 -24.00014967 31.10402436     6     247    0    0    0
H 128.09774337 -23.66611123 28.47189869     6     247    0    0    0
C 127.11765493 -27.04775817 30.91464235     2     247   251   252   253
H 125.65738936 -25.76553658 31.73428189     6    250    0    0    0
H 126.43596800 -28.32818583 29.54937911     6    250    0    0    0
C 128.49697237 -28.76315179 32.83003184     2    250   254   255   256
H 130.21075981 -29.54890216 32.10907525     6    253    0    0    0
H 129.25889263 -27.63607019 34.47425303     6    253    0    0    0
C 126.95434820 -30.82567227 34.08412942     2    253   257   258   259
H 128.12599875 -31.48898316 35.53416524     6    256    0    0    0
H 125.10334636 -30.12051940 34.87623508     6    256    0    0    0
C 126.33501841 -33.25693337 32.43098301     2    256   260   261   262
H 124.90437686 -32.55098746 31.08204401     6    259    0    0    0
H 127.90597318 -33.82165779 31.26837237     6    259    0    0    0
C 124.93920134 -35.33124792 33.81337150     2    259   263   264   265
H 126.03899137 -35.91870447 35.45470274     6    262    0    0    0
H 123.24643342 -34.44114850 34.52200981     6    262    0    0    0
C 124.33948544 -37.64777280 32.16802138     2    262   266   267   268
H 122.62908957 -38.49168030 32.84744404     6    265    0    0    0
H 123.62830023 -36.89348420 30.39337257     6    265    0    0    0
C 126.59052774 -39.57807601 31.77789780     2    265   269   270   271
H 128.38846915 -38.64063555 31.34420125     6    268    0    0    0
H 126.81304386 -40.44095003 33.66843726     6    268    0    0    0
C 126.00206768 -41.82231605 29.98969268     2    268   272   273   274
H 124.15899758 -42.49625426 30.37082127     6    271    0    0    0
H 125.93384784 -41.13474553 28.06549562     6    271    0    0    0
C 127.91583545 -44.06047019 30.21206189     1    271   275   276   277
H 129.59789737 -43.40122227 29.22180219     6    274    0    0    0
H 127.16216704 -45.72251931 29.28621466     6    274    0    0    0
H 128.11185127 -44.48058722 32.23643125     6    274    0    0    0
H 130.93481378 -10.28161939 18.52776469     6     279    0    0    0
C 131.96107440 -10.38590791 16.89351779     1     278    280    281    282
H 131.64707468 -8.52356999 16.02144369     6     279    0    0    0
H 133.95685165 -10.90846322 17.29586758     6     279    0    0    0
C 130.67815977 -12.11159854 14.97048808     2     279    283    284    285
H 128.90471866 -11.16823391 14.41823478     6     282    0    0    0
H 131.84261398 -12.33013246 13.22152216     6     282    0    0    0
C 130.09727035 -14.62314747 16.06926245     2     282    286   287   288
H 131.82515358 -15.47301875 16.76524481     6     285    0    0    0
H 128.87228273 -14.34193694 17.76665837     6     285    0    0    0
C 129.18527038 -16.64297291 14.08122089     2     285   289   290   291
H 127.55878452 -15.79383463 13.25600149     6    288    0    0    0
H 130.73472023 -17.01495952 12.72621618     6    288    0    0    0
C 128.25950134 -19.05526367 15.44006974     2    288   292   293   294
H 129.63863635 -19.83550332 16.63367077     6    291    0    0    0
H 126.67504896 -18.34789181 16.57961828     6    291    0    0    0
C 127.10231275 -20.95758566 13.53362724     2    291   295   296   297
H 125.82376495 -20.02929895 12.20864388     6    294    0    0    0
H 128.39722213 -21.95753463 12.35351466     6    294    0    0    0
C 125.48434167 -23.12933204 14.46978835     2    294   298   299   300

   17   -1830.5162938016      4.49E-09 Convergence criterion met
 Total energy in the final basis set = -1828.32203274
 Total job time:  16.88s(wall), 30.57s(cpu)
        *  Thank you very much for using Q-Chem.  Have a nice day.  *

User input: 2 of 2

                  Welcome to Q-Chem
     A Quantum Leap Into The Future Of Chemistry

 Q-Chem 5.4 (devel), Q-Chem, Inc., Pleasanton, CA (2021)

 E. Epifanovsky,  A. T. B. Gilbert,  Xintian Feng,  Joonho Lee,  Yuezhi Mao,
 N. Mardirossian,  P. Pokhilko,  A. White,  M. Wormit,  M. P. Coons,
 A. L. Dempwolff,  Zhengting Gan,  D. Hait,  P. R. Horn,  L. D. Jacobson,
 I. Kaliman,  J. Kussmann,  A. W. Lange,  Ka Un Lao,  D. S. Levine,  Jie Liu,
 S. C. McKenzie,  A. F. Morrison,  K. Nanda,  F. Plasser,  D. R. Rehn,
 M. L. Vidal,  Zhi-Qiang You,  Ying Zhu,  B. Alam,  B. Albrecht,
 A. Aldossary,  E. Alguire,  J. H. Andersen,  D. Barton,  K. Begam,  A. Behn,
 Y. A. Bernard,  E. J. Berquist,  H. Burton,  A. Carreras,  K. Carter-Fenk,
 R. Chakraborty,  A. D. Chien,  K. D. Closser,  V. Cofer-Shabica,
 S. Dasgupta,  Jia Deng,  M. de Wergifosse,  M. Diedenhofen,  Hainam Do,
 S. Ehlert,  Po-Tung Fang,  S. Fatehi,  Qingguo Feng,  T. Friedhoff,
 J. Gayvert,  Qinghui Ge,  G. Gidofalvi,  M. Goldey,  J. Gomes,
 C. Gonzalez-Espinoza,  S. Gulania,  A. Gunina,  M. W. D. Hanson-Heine,
 P. H. P. Harbach,  A. W. Hauser,  M. F. Herbst,  M. Hernandez Vera,
 M. Hodecker,  Z. C. Holden,  S. Houck,  Xunkun Huang,  Kerwin Hui,
 B. C. Huynh,  M. Ivanov,  Hyunjun Ji,  Hanjie Jiang,  B. Kaduk,  S. Kaehler,
 K. Khistyaev,  Jaehoon Kim,  P. Klunzinger,  Z. Koczor-Benda,
 Joong Hoon Koh,  D. Kosenkov,  L. Koulias,  T. Kowalczyk,  C. M. Krauter,
 K. Kue,  A. Kunitsa,  T. Kus,  A. Landau,  K. V. Lawler,  D. Lefrancois,
 S. Lehtola,  Rain Li,  Yi-Pei Li,  Jiashu Liang,  M. Liebenthal,
 Hung-Hsuan Lin,  You-Sheng Lin,  Fenglai Liu,  Kuan-Yu Liu,
 M. Loipersberger,  A. Luenser,  A. Manjanath,  P. Manohar,  E. Mansoor,
 S. F. Manzer,  Shan-Ping Mao,  A. V. Marenich,  T. Markovich,  S. Mason,
 S. A. Maurer,  P. F. McLaughlin,  M. F. S. J. Menger,  J.-M. Mewes,
 S. A. Mewes,  P. Morgante,  J. W. Mullinax,  K. J. Oosterbaan,  G. Paran,
 Alexander C. Paul,  Suranjan K. Paul,  F. Pavosevic,  Zheng Pei,  S. Prager,
 E. I. Proynov,  E. Ramos,  B. Rana,  A. E. Rask,  A. Rettig,  R. M. Richard,
 F. Rob,  E. Rossomme,  T. Scheele,  M. Scheurer,  M. Schneider,
 N. Sergueev,  S. M. Sharada,  W. Skomorowski,  D. W. Small,  C. J. Stein,
 Yu-Chuan Su,  E. J. Sundstrom,  Zhen Tao,  J. Thirman,  T. Tsuchimochi,
 N. M. Tubman,  S. P. Veccham,  O. Vydrov,  J. Wenzel,  J. Witte,  A. Yamada,
 Kun Yao,  S. Yeganeh,  S. R. Yost,  A. Zech,  Igor Ying Zhang,  Xing Zhang,
 Yu Zhang,  D. Zuev,  A. Aspuru-Guzik,  A. T. Bell,  N. A. Besley,
 K. B. Bravaya,  B. R. Brooks,  D. Casanova,  Jeng-Da Chai,  S. Coriani,
 C. J. Cramer,  A. E. DePrince, III,  R. A. DiStasio Jr.,  A. Dreuw,
 B. D. Dunietz,  T. R. Furlani,  W. A. Goddard III,  S. Grimme,
 S. Hammes-Schiffer,  T. Head-Gordon,  W. J. Hehre,  Chao-Ping Hsu,
 T.-C. Jagau,  Yousung Jung,  A. Klamt,  Jing Kong,  D. S. Lambrecht,
 WanZhen Liang,  N. J. Mayhall,  C. W. McCurdy,  J. B. Neaton,
 C. Ochsenfeld,  J. A. Parkhill,  R. Peverati,  V. A. Rassolov,  Yihan Shao,
 L. V. Slipchenko,  T. Stauch,  R. P. Steele,  J. E. Subotnik,
 A. J. W. Thom,  A. Tkatchenko,  D. G. Truhlar,  T. Van Voorhis,
 T. A. Wesolowski,  K. B. Whaley,  H. L. Woodcock III,  P. M. Zimmerman,
 S. Faraji,  P. M. W. Gill,  M. Head-Gordon,  J. M. Herbert,  A. I. Krylov

 Additional authors for Version 5.4.1:
 S. Kotaru,  Shaozhi Li,  Xiangyuan Li,  F. Matz,  A. Molle,  Haisheng Ren,
 Yingli Su,  Hung-Yi Tsai,  C. Utku,  Fang Wang

 Contributors to earlier versions of Q-Chem not listed above:
 R. D. Adamson,  B. Austin,  R. Baer,  J. Baker,  G. J. O. Beran,
 K. Brandhorst,  S. T. Brown,  E. F. C. Byrd,  A. K. Chakraborty,
 G. K. L. Chan,  Chun-Min Chang,  Yunqing Chen,  C.-L. Cheng,
 Siu Hung Chien,  D. M. Chipman,  D. L. Crittenden,  H. Dachsel,
 R. J. Doerksen,  A. D. Dutoi,  R. G. Edgar,  J. Fosso-Tande,
 L. Fusti-Molnar,  D. Ghosh,  A. Ghysels,  A. Golubeva-Zadorozhnaya,
 J. Gonthier,  M. S. Gordon,  S. R. Gwaltney,  G. Hawkins,  J. E. Herr,
 A. Heyden,  S. Hirata,  E. G. Hohenstein,  G. Kedziora,  F. J. Keil,
 C. Kelley,  Jihan Kim,  R. A. King,  R. Z. Khaliullin,  P. P. Korambath,
 W. Kurlancheek,  A. Laurent,  A. M. Lee,  M. S. Lee,  S. V. Levchenko,
 Ching Yeh Lin,  D. Liotard,  E. Livshits,  R. C. Lochan,  I. Lotan,
 L. A. Martinez-Martinez,  P. E. Maslen,  N. Nair,  D. P. O'Neill,
 D. Neuhauser,  E. Neuscamman,  C. M. Oana,  R. Olivares-Amaya,  R. Olson,
 T. M. Perrine,  B. Peters,  P. A. Pieniazek,  A. Prociuk,  Y. M. Rhee,
 J. Ritchie,  M. A. Rohrdanz,  E. Rosta,  N. J. Russ,  H. F. Schaefer III,
 M. W. Schmidt,  N. E. Schultz,  S. Sharma,  N. Shenvi,  C. D. Sherrill,
 A. C. Simmonett,  A. Sodt,  T. Stein,  D. Stuck,  K. S. Thanthiriwatte,
 V. Vanovschi,  L. Vogt,  Tao Wang,  A. Warshel,  M. A. Watson,
 C. F. Williams,  Q. Wu,  X. Xu,  Jun Yang,  W. Zhang,  Yan Zhao

 Please cite Q-Chem as follows:
 Y. Shao et al., Mol. Phys. 113, 184-215 (2015)
 DOI: 10.1080/00268976.2014.952696

 Q-Chem 5.4.1 for Intel X86 EM64T Linux

 Parts of Q-Chem use Armadillo 9.900.5 (Nocturnal Misbehaviour).
 http://arma.sourceforge.net/

 Q-Chem begins on Wed Jun 22 16:41:41 2022

 Host: p09r14n13.grace.hpc.yale.internal
0

     Scratch files written to /home/tl686/scratch60/qchem_dev/scratch/qchem247454//
 Processing $rem in /home/tl686/qchem_dev/qchem/config/preferences:
 Processing $rem in /home/tl686/.qchemrc:
Applying user defined connections for MM calculations
The previous job contains 0 fragments, simply inherited here

 Checking the input file for inconsistencies... 	...done.

--------------------------------------------------------------
User input:
--------------------------------------------------------------

$molecule
READ
$end

$qm_atoms
1:11
$end

$force_field_params
NumAtomTypes 3
AtomType -1   0.0238     3.11   0.2868
AtomType -2   0.07124    3.30   0.6597
AtomType -3  -0.0760     3.09   0.1434
$end

$rem
     JOBTYPE  freq
     METHOD   bp86
     BASIS    def2-msvp
     MAX_SCF_CYCLES   800
     INPUT_BOHR TRUE
     SYM_IGNORE TRUE
     SCF_GUESS     read
     user_connect            true
     qm_mm_interface         ONIOM
     force_field             oplsaa
$end

--------------------------------------------------------------

    2   -1830.5162938016      4.55E-09 Convergence criterion met
 Total energy in the final basis set = -1828.32203274

                    Orbital Energies (a.u.)
 --------------------------------------------------------------

 Alpha MOs
 -- Occupied --
******** -29.6425 -25.6011 -25.5914 -25.5847 -18.8870 -18.8863 -18.8846
-18.8825 -18.8648 -10.0657 -10.0594 -10.0536 -10.0430 -10.0395  -3.3289
 -2.1628  -2.1454  -2.1296  -1.0699  -1.0535  -1.0490  -1.0357  -1.0260
 -0.5835  -0.5323  -0.5239  -0.5193  -0.5154  -0.4570  -0.4449  -0.4417
 -0.4332  -0.4323  -0.4308  -0.4277  -0.4251  -0.4203  -0.4089  -0.4059
 -0.4010  -0.3978  -0.3886  -0.3772  -0.2877  -0.2770  -0.2447  -0.2276

          Ground-State Mulliken Net Atomic Charges

     Atom                 Charge (a.u.)
  ----------------------------------------
      1 Fe                   -0.490118
      2 C                     0.206920
      3 C                     0.222496
      4 C                     0.246064
      5 C                     0.220369
      6 C                     0.214020
      7 O                    -0.150958
      8 O                    -0.111238
      9 O                    -0.087256
     10 O                    -0.125965
     11 O                    -0.144335
  ----------------------------------------
  Sum of atomic charges =     0.000000

                    Cartesian Multipole Moments
 -----------------------------------------------------------------
    Charge (ESU x 10^10)
                -0.0000
    Dipole Moment (Debye)
         X      -0.1371686339      Y       0.5628514099      Z      -0.1539064950
       Tot       0.5994198469
    Quadrupole Moments (Debye-Ang)
        XX     -86.2221     XY      33.3632     YY     -72.5557
        XZ     -11.7425     YZ      12.3483     ZZ     -75.9254
