 Q-Chem 5.4 (devel), Q-Chem, Inc., Pleasanton, CA (2021)
 Q-Chem 5.4.1 for Intel X86 EM64T Linux

User input:
--------------------------------------------------------------
$molecule
0   1
 Fe 1475.88440952 68.82728349 59.78980589    -1  0   0   0   0
C 1475.92647226 67.67212714 56.61102837    -2  0   0   0   0
C 1475.36896710 70.12473327 62.90890021    -2  0   0   0   0
C 1472.61131253 69.21137705 59.31864435    -2  0   0   0   0
C 1477.35775243 65.93866921 60.91166463    -2  0   0   0   0
C 1478.02671824 71.51165737 59.33756272    -2  0   0   0   0
O 1475.91228167 67.00660072 54.57296548    -3  0   0   0   0
O 1474.98439666 71.32948613 64.74868844    -3  0   0   0   0
O 1470.46723377 69.55421190 58.66313090    -3  0   0   0   0
O 1478.32897484 64.02241360 61.36392337    -3  0   0   0   0
O 1479.53062696 73.17797110 59.37206513    -3  0   0   0   0
H 1457.34626665 52.52296420 51.42849046      6     13    0    0    0
C 1457.12000513 52.01004626 49.49126318     1     12    14    15    16
H 1455.19937456 51.28585481 49.22161119     6     13    0    0    0
H 1456.98432150 53.71103982 48.20515062     6     13    0    0    0
C 1459.38711002 50.38382667 48.77034821     2     13    17    18    19
H 1459.46760005 48.79155726 50.14301444     6     16    0    0    0
H 1458.94474984 49.50541497 46.99420270     6     16    0    0    0
C 1462.06697702 51.62715700 48.55147965     2     16    20   21   22
H 1461.91677380 52.90596150 46.96790731     6     19    0    0    0
H 1462.81283930 52.60477271 50.23756024     6     19    0    0    0
C 1464.08706576 49.73665728 47.76224917     2     19   23   24   25
H 1463.53513374 48.01709105 48.60258912     6    22    0    0    0
H 1464.08271989 49.49623339 45.76820662     6    22    0    0    0
C 1466.71327261 50.52650191 48.47933605     2    22   26   27   28
H 1467.33836270 52.07067292 47.46619789     6    25    0    0    0
H 1466.75700112 51.28310876 50.40731710     6    25    0    0    0
C 1468.32562205 48.25320114 47.94310484     2    25   29   30   31
H 1467.75193197 46.96519878 49.38961665     6    28    0    0    0
H 1467.70972583 47.18705073 46.22919347     6    28    0    0    0
C 1471.16511251 48.99985268 47.68765581     2    28   32   33   34
H 1471.87348590 49.46748307 45.86259213     6    31    0    0    0
H 1471.71778733 50.69303027 48.67283159     6    31    0    0    0
C 1472.55298771 46.89569801 49.05469416     2    31   35   36   37
H 1472.01820320 46.95312665 50.98268162     6    34    0    0    0
H 1472.08248619 44.93401051 48.36054696     6    34    0    0    0
C 1475.50091503 47.47253482 48.83721890     2    34   38   39   40
H 1475.91018032 48.54019023 47.19274437     6    37    0    0    0
H 1475.77587730 48.76214173 50.40344651     6    37    0    0    0
C 1477.13489599 45.09588999 49.21418594     2    37   41   42   43
H 1476.46293956 44.11351005 50.93917827     6    40    0    0    0
H 1477.18785005 43.89411419 47.65115926     6    40    0    0    0
C 1479.75275452 45.75786632 50.04316479     2    40   44   45   46
H 1480.73994168 46.49877238 48.48269560     6    43    0    0    0
H 1480.04097745 47.21042091 51.38089989     6    43    0    0    0
C 1481.25033412 43.55195670 51.18907315     1    43   47   48   49
H 1480.57454330 43.18392351 53.11493709     6    46    0    0    0
H 1483.16270189 44.20196402 51.53817336     6    46    0    0    0
H 1481.54584663 41.81396974 50.11756121     6    46    0    0    0
H 1481.33585704 60.21734855 53.98013893     6     51    0    0    0
C 1480.26424845 61.20275243 55.44914057     1     50    52    53    54
H 1481.56112441 61.71603218 56.99915682     6     51    0    0    0
H 1479.65191829 63.00287374 54.72477890     6     51    0    0    0
C 1478.10502915 59.33806250 56.47684840     2     51    55    56    57
H 1476.94201904 60.25550162 57.83408422     6     54    0    0    0
H 1476.85046494 58.81387649 54.76134226     6     54    0    0    0
C 1478.98314242 56.94120408 57.90279170     2     54    58   59   60
H 1480.24455433 57.56021492 59.27250304     6     57    0    0    0
H 1477.50047935 56.10928176 59.00486508     6     57    0    0    0
C 1480.52199137 55.10047843 56.44450180     2     57   61   62   63
H 1479.35595579 54.51962597 54.85241902     6    60    0    0    0
H 1482.15106252 56.10056166 55.69151324     6    60    0    0    0
C 1481.64963052 52.95095712 58.07011489     2    60   64   65   66
H 1483.00047255 53.64466240 59.53082016     6    63    0    0    0
H 1480.26814482 52.02472046 59.46221449     6    63    0    0    0
C 1482.70337826 50.89523064 56.24479295     2    63   67   68   69
H 1482.58292703 49.11490927 57.29513764     6    66    0    0    0
H 1481.45499095 50.70036585 54.51364968     6    66    0    0    0
C 1485.33570352 51.54381824 55.18302206     2    66   70   71   72
H 1485.21378043 53.32531411 54.28465328     6    69    0    0    0
H 1486.54982322 51.34519624 56.84667959     6    69    0    0    0
C 1486.22711480 49.55038581 53.19435752     2    69   73   74   75
H 1486.81796574 47.77816690 54.15375183     6    72    0    0    0
H 1484.58141271 49.18336348 51.95719883     6    72    0    0    0
C 1488.31434696 50.30879825 51.57232147     2    72   76   77   78
H 1487.76896474 52.16525753 50.81443604     6    75    0    0    0
H 1489.97623475 50.59791696 52.72829520     6    75    0    0    0
C 1489.08432194 48.30383573 49.54123038     2    75   79   80   81
H 1489.25472633 46.47726232 50.63227291     6    78    0    0    0
H 1487.58235749 48.04878697 48.17348639     6    78    0    0    0
C 1491.59343798 48.67335369 48.24692112     2    78   82   83   84
H 1491.48086984 50.51554014 47.18931020     6    81    0    0    0
H 1493.10273932 48.99959548 49.65779414     6    81    0    0    0
C 1492.34478679 46.41964809 46.42932084     1    81   85   86   87
H 1494.32274834 46.48730475 45.78038320     6    84    0    0    0
H 1491.13467787 46.48029779 44.84815244     6    84    0    0    0
H 1491.84390310 44.54110702 47.23099657     6    84    0    0    0
H 1459.94138518 46.54531543 67.42444355     6     89    0    0    0
C 1460.57511017 44.57869759 67.76446908     1     88    90    91    92
H 1461.81028506 44.66284605 69.36394910     6     89    0    0    0
H 1458.90378816 43.45953416 68.29107705     6     89    0    0    0
C 1461.62677360 43.47249156 65.23431188     2     89    93    94    95
H 1460.29028695 43.36785375 63.73413423     6     92    0    0    0
H 1463.07579933 44.56868623 64.55018365     6     92    0    0    0
C 1462.58525915 40.73667253 65.46398275     2     92    96   97   98
H 1464.31837846 40.76588296 66.63426661     6     95    0    0    0
H 1461.34971634 39.38881453 66.29637515     6     95    0    0    0
C 1463.28626093 39.72228894 62.73192030     2     95   99   100   101
H 1461.61690324 39.97502785 61.50392889     6    98    0    0    0
H 1464.69239371 41.01681111 61.97929698     6    98    0    0    0
C 1464.59386535 37.07770937 62.71576358     2    98   102   103   104
H 1466.05490309 37.02587556 63.98927502     6    101    0    0    0
H 1463.26327082 35.59805373 63.22721036     6    101    0    0    0
C 1465.44993345 36.26794139 60.02324882     2    101   105   106   107
H 1463.81434081 36.59996878 58.83221759     6    104    0    0    0
H 1466.94983971 37.51076546 59.40548479     6    104    0    0    0
C 1466.10730030 33.39040577 59.89508796     2    104   108   109   110
H 1467.33293767 32.99254538 61.55059073     6    107    0    0    0
H 1464.32890830 32.39568337 60.04084240     6    107    0    0    0
C 1467.63919339 32.67353373 57.63093369     2    107   111   112   113
H 1466.66502624 33.37166679 56.01508147     6    110    0    0    0
H 1469.38379950 33.86952239 57.48208375     6    110    0    0    0
C 1468.50768431 29.98318726 57.64833860     2    110   114   115   116
H 1469.40384964 29.68379142 59.49220223     6    113    0    0    0
H 1467.21362640 28.52554815 57.12906173     6    113    0    0    0
C 1470.64734636 29.61891905 55.67620750     2    113   117   118   119
H 1469.82580388 29.81169458 53.77737737     6    116    0    0    0
H 1471.94705328 31.21744563 55.65650299     6    116    0    0    0
C 1472.13921175 27.16177309 55.80649792     2    116   120   121   122
H 1473.32029167 27.20697809 54.12055705     6    119    0    0    0
H 1473.44573761 27.38973641 57.39089683     6    119    0    0    0
C 1470.61820427 24.80707074 56.52982040     1    119   123   124   125
H 1471.52803270 23.04030601 56.15323052     6    122    0    0    0
H 1468.87714533 24.64863949 55.36685533     6    122    0    0    0
H 1469.73947908 24.93085192 58.51528993     6    122    0    0    0
H 1450.49176436 43.11245611 71.39576736     6     127    0    0    0
C 1451.70200232 43.45601849 73.03233845     1     126    128    129    130
H 1450.88772313 42.60464596 74.73372424     6     127    0    0    0
H 1453.39015001 42.45189167 72.71532788     6     127    0    0    0
C 1452.32394882 46.29058578 73.00386826     2     127    131    132    133
H 1453.91391973 46.79416795 71.68937811     6     130    0    0    0
H 1450.67679919 47.21410446 72.24508125     6     130    0    0    0
C 1452.99442066 47.02645431 75.64343653     2     130    134   135   136
H 1451.77575483 46.10602958 76.99751882     6     133    0    0    0
H 1454.91856374 46.36260573 76.10786243     6     133    0    0    0
C 1453.16722609 49.87487538 76.14908212     2     133   137   138   139
H 1451.37352008 50.70327894 75.56859897     6    136    0    0    0
H 1453.15094903 50.34279110 78.12989635     6    136    0    0    0
C 1455.05986829 51.46466507 74.73021319     2    136   140   141   142
H 1456.84992831 50.67306953 75.21145979     6    139    0    0    0
H 1454.78360516 51.13869964 72.65263107     6    139    0    0    0
C 1454.78959550 54.37184687 75.10522176     2    139   143   144   145
H 1452.77319969 54.84483503 74.74236370     6    142    0    0    0
H 1454.83277709 54.93412320 77.10678116     6    142    0    0    0
C 1456.25239152 56.12006546 73.25098254     2    142   146   147   148
H 1458.32271686 56.01017759 73.28606036     6    145    0    0    0
H 1455.61562428 55.76925924 71.34318398     6    145    0    0    0
C 1455.51417168 58.89466069 73.93336255     2    145   149   150   151
H 1453.35258725 59.16450124 73.77240874     6    148    0    0    0
H 1455.82905943 58.96707706 75.97574967     6    148    0    0    0
C 1456.87798236 61.04291380 72.54690203     2    148   152   153   154
H 1458.84007770 60.56873118 72.49745412     6    151    0    0    0
H 1456.40541977 60.90338368 70.55089515     6    151    0    0    0
C 1456.33382547 63.81566092 73.39101223     2    151   155   156   157
H 1457.29207677 65.04089438 72.06640721     6    154    0    0    0
H 1454.27529228 64.06162687 73.17423332     6    154    0    0    0
C 1457.34811773 64.45640838 76.07102012     2    154   158   159   160
H 1456.34968450 63.14410410 77.31746824     6    157    0    0    0
H 1459.37451917 63.96181341 76.51970459     6    157    0    0    0
C 1456.66405483 67.10852919 76.74537856     1    157   161   162   163
H 1457.07957062 67.53432002 78.70237392     6    160    0    0    0
H 1454.71448045 67.60101591 76.36557178     6    160    0    0    0
H 1457.70156987 68.65363616 75.88320180     6    160    0    0    0
H 1462.75829351 39.44223110 73.94223779     6     165    0    0    0
C 1461.05177019 40.10243133 73.25560161     1     164    166    167    168
H 1461.62652387 41.19105579 71.61967088     6     165    0    0    0
H 1459.83827222 38.51377545 72.65189547     6     165    0    0    0
C 1459.45067303 41.74504326 75.05907271     2     165    169    170    171
H 1459.68022654 43.71332656 74.46736204     6     168    0    0    0
H 1457.44446492 41.30491380 74.97336040     6     168    0    0    0
C 1460.26855339 41.35229880 77.68235569     2     168    172   173   174
H 1459.69981762 39.33233443 78.12206418     6     171    0    0    0
H 1462.35812376 41.49535445 77.90895251     6     171    0    0    0
C 1459.08139051 43.18414850 79.56172026     2     171   175   176   177
H 1459.50410613 45.19536623 78.98583661     6    174    0    0    0
H 1457.09694153 42.92387890 79.58290569     6    174    0    0    0
C 1460.16135064 42.68192936 82.20047252     2    174   178   179   180
H 1459.86423258 40.64968290 82.89231715     6    177    0    0    0
H 1462.08953234 43.10247700 82.09287298     6    177    0    0    0
C 1458.89300639 44.23694490 84.33754505     2    177   181   182   183
H 1458.57247739 46.22884843 83.98995689     6    180    0    0    0
H 1456.99886431 43.44161454 84.64992496     6    180    0    0    0
C 1460.46959083 44.00892153 86.84338683     2    180   184   185   186
H 1459.55411347 42.33091605 87.86528749     6    183    0    0    0
H 1462.27226188 43.30520952 86.28465981     6    183    0    0    0
C 1460.65509684 46.45528421 88.33973799     2    183   187   188   189
H 1461.42833692 47.91558823 87.20630603     6    186    0    0    0
H 1458.77528472 46.94442464 88.81978611     6    186    0    0    0
C 1462.85210417 46.27224593 90.41251609     2    186   190   191   192
H 1462.49529863 44.60809956 91.65676867     6    189    0    0    0
H 1464.63991399 45.76069909 89.45012688     6    189    0    0    0
C 1462.96838507 48.71026256 92.16270163     2    189   193   194   195
H 1462.63036104 50.31950747 90.90444691     6    192    0    0    0
H 1461.35401757 48.75190792 93.42138867     6    192    0    0    0
C 1465.48191917 49.17137552 93.59855366     2    192   196   197   198
H 1466.01354246 47.54418083 94.92041148     6    195    0    0    0
H 1467.05874433 49.73042373 92.38366645     6    195    0    0    0
C 1464.94051601 51.37589743 95.40425009     1    195   199   200   201
H 1466.77543588 51.99059361 96.15301808     6    198    0    0    0
H 1463.91018781 50.54270985 96.91781875     6    198    0    0    0
H 1463.93679793 53.15476242 94.60579408     6    198    0    0    0
H 1485.54884254 46.12811291 74.36890740     6     203    0    0    0
C 1484.77286397 45.11238202 75.95691635     1     202    204    205    206
H 1484.80069400 46.33797197 77.64717318     6     203    0    0    0
H 1482.83373685 44.44667679 75.54299935     6     203    0    0    0
C 1486.44639787 42.83772286 76.51489544     2     203    207    208    209
H 1485.43347847 41.78397076 78.00774645     6     206    0    0    0
H 1486.54030014 41.53964303 74.90018796     6     206    0    0    0
C 1489.20501741 43.15565308 77.28580280     2     206    210   211   212
H 1490.03242172 41.28918111 77.11617686     6     209    0    0    0
H 1490.37946254 44.53281775 76.16124905     6     209    0    0    0
C 1489.56533007 44.08089165 80.13802441     2     209   213   214   215
H 1489.08798368 46.00106954 80.55107615     6    212    0    0    0
H 1488.42651386 42.88930256 81.32593262     6    212    0    0    0
C 1492.22160141 43.35464522 80.80750840     2    212   216   217   218
H 1492.21437098 41.32657960 81.06351195     6    215    0    0    0
H 1493.42176979 43.57332297 79.21699948     6    215    0    0    0
C 1493.21576845 44.83326345 83.09597582     2    215   219   220   221
H 1491.77433985 45.11949311 84.54684315     6    218    0    0    0
H 1494.60129865 43.72726969 84.13865626     6    218    0    0    0
C 1494.60698654 47.34156946 82.38117026     2    218   222   223   224
H 1496.15273626 46.84303882 81.11155312     6    221    0    0    0
H 1493.26762253 48.33285570 81.07798942     6    221    0    0    0
C 1495.66876420 48.78988662 84.71707780     2    221   225   226   227
H 1494.21514130 48.70841320 86.23593014     6    224    0    0    0
H 1497.09074573 47.46010737 85.47534695     6    224    0    0    0
C 1496.65093598 51.47312194 84.16655846     2    224   228   229   230
H 1498.35632261 51.49364965 83.04244434     6    227    0    0    0
H 1495.12269170 52.70256072 83.35188444     6    227    0    0    0
C 1497.54065238 52.48378437 86.80887374     2    227   231   232   233
H 1496.11368489 52.26848914 88.28075441     6    230    0    0    0
H 1499.36146835 51.51402051 87.33057551     6    230    0    0    0
C 1497.96577103 55.42886913 86.60521524     2    230   234   235   236
H 1499.11770837 55.64615944 84.87990072     6    233    0    0    0
H 1496.12450363 56.35152048 86.64463132     6    233    0    0    0
C 1499.28729540 56.83491506 88.71052437     1    233   237   238   239
H 1499.16203081 58.85247564 88.32704665     6    236    0    0    0
H 1501.16116664 56.29100183 88.65618604     6    236    0    0    0
H 1498.35170404 56.32346136 90.42614330     6    236    0    0    0
H 1491.29051829 42.45485436 50.66167414     6     241    0    0    0
C 1491.41145854 40.46304461 51.19214937     1     240    242    243    244
H 1493.35953752 39.74301507 51.45428577     6     241    0    0    0
H 1490.39995235 40.21098096 52.88661787     6     241    0    0    0
C 1489.97105017 38.65539824 49.31953591     2     241    245    246    247
H 1491.15286616 38.71710046 47.57638041     6     244    0    0    0
H 1490.25525308 36.67273769 50.00512080     6     244    0    0    0
C 1487.22094682 39.41711160 48.82439779     2     244    248   249   250
H 1486.09900298 37.87935820 48.01201353     6     247    0    0    0
H 1486.06899343 39.69812424 50.56006174     6     247    0    0    0
C 1487.18051960 41.83271628 47.10455960     2     247   251   252   253
H 1487.80109010 43.56519851 48.19654752     6    250    0    0    0
H 1488.65453768 41.57453881 45.56494620     6    250    0    0    0
C 1484.68852724 41.80290140 45.54744575     2    250   254   255   256
H 1484.95224406 40.09441268 44.39630483     6    253    0    0    0
H 1482.89836335 41.50427235 46.48191622     6    253    0    0    0
C 1484.18336369 43.99902683 43.61701964     2    253   257   258   259
H 1482.26200452 44.11572636 42.85995668     6    256    0    0    0
H 1484.24597142 45.67365304 44.75976081     6    256    0    0    0
C 1486.15856306 44.21307746 41.41243907     2    256   260   261   262
H 1488.11796755 43.51981984 41.93053398     6    259    0    0    0
H 1485.62518539 42.74284636 40.03022397     6    259    0    0    0
C 1486.44341754 46.97612957 40.50410705     2    259   263   264   265
H 1484.93550128 47.55075587 39.35460316     6    262    0    0    0
H 1486.21235572 48.12422384 42.05990446     6    262    0    0    0
C 1489.00073492 47.47596329 39.24478964     2    262   266   267   268
H 1489.24263441 49.50778802 39.23041339     6    265    0    0    0
H 1490.58458395 46.84451209 40.28022438     6    265    0    0    0
C 1488.97438516 46.56539015 36.48489607     2    265   269   270   271
H 1488.95838769 44.53710156 36.45833952     6    268    0    0    0
H 1487.49702016 47.15384282 35.40010423     6    268    0    0    0
C 1491.60937141 47.56373671 35.33138679     2    268   272   273   274
H 1491.75946919 49.54512395 35.58875766     6    271    0    0    0
H 1493.12896948 46.70431026 36.40741363     6    271    0    0    0
C 1491.93090915 46.92053232 32.55907446     1    271   275   276   277
H 1490.77702467 45.11689460 32.25334390     6    274    0    0    0
H 1493.86195578 46.34190053 32.07497632     6    274    0    0    0
H 1491.03666473 47.93353785 31.20821523     6    274    0    0    0
H 1479.84766452 35.55318880 66.51193936     6     279    0    0    0
C 1479.10025054 37.35157658 67.22234392     1     278    280    281    282
H 1478.44237082 38.18844272 65.53054464     6     279    0    0    0
H 1477.66383022 36.84411284 68.82002200     6     279    0    0    0
C 1481.13905062 39.11605449 68.54440226     2     279    283    284    285
H 1480.45966599 40.94216229 68.88703870     6     282    0    0    0
H 1481.60944665 38.12405807 70.26416230     6     282    0    0    0
C 1483.49422234 39.17396023 66.97976387     2     282    286   287   288
H 1483.99293616 37.24466381 66.33900740     6     285    0    0    0
H 1482.70879747 39.94573928 65.26807764     6     285    0    0    0
C 1485.66054549 40.67056642 68.24430359     2     285   289   290   291
H 1484.96444410 42.54886456 68.72577658     6    288    0    0    0
H 1486.17535918 40.00641787 70.07625353     6    288    0    0    0
C 1488.26645014 40.41926520 67.00876289     2    288   292   293   294
H 1488.75140447 38.38895036 67.09524069     6    291    0    0    0
H 1488.21937583 40.93127613 64.94728485     6    291    0    0    0
C 1490.25232715 41.98014636 68.10478828     2    291   295   296   297
H 1489.91992119 43.97813020 68.47036468     6    294    0    0    0
H 1490.42900731 41.17149457 69.95888711     6    294    0    0    0
C 1492.77976297 41.96506856 66.65701568     2    294   298   299   300

   17   -1830.5183194952      6.74E-09 Convergence criterion met
 Total energy in the final basis set = -1828.30243923
 Total job time:  17.71s(wall), 30.54s(cpu)
        *  Thank you very much for using Q-Chem.  Have a nice day.  *

User input: 2 of 2

                  Welcome to Q-Chem
     A Quantum Leap Into The Future Of Chemistry

 Q-Chem 5.4 (devel), Q-Chem, Inc., Pleasanton, CA (2021)

 E. Epifanovsky,  A. T. B. Gilbert,  Xintian Feng,  Joonho Lee,  Yuezhi Mao,
 N. Mardirossian,  P. Pokhilko,  A. White,  M. Wormit,  M. P. Coons,
 A. L. Dempwolff,  Zhengting Gan,  D. Hait,  P. R. Horn,  L. D. Jacobson,
 I. Kaliman,  J. Kussmann,  A. W. Lange,  Ka Un Lao,  D. S. Levine,  Jie Liu,
 S. C. McKenzie,  A. F. Morrison,  K. Nanda,  F. Plasser,  D. R. Rehn,
 M. L. Vidal,  Zhi-Qiang You,  Ying Zhu,  B. Alam,  B. Albrecht,
 A. Aldossary,  E. Alguire,  J. H. Andersen,  D. Barton,  K. Begam,  A. Behn,
 Y. A. Bernard,  E. J. Berquist,  H. Burton,  A. Carreras,  K. Carter-Fenk,
 R. Chakraborty,  A. D. Chien,  K. D. Closser,  V. Cofer-Shabica,
 S. Dasgupta,  Jia Deng,  M. de Wergifosse,  M. Diedenhofen,  Hainam Do,
 S. Ehlert,  Po-Tung Fang,  S. Fatehi,  Qingguo Feng,  T. Friedhoff,
 J. Gayvert,  Qinghui Ge,  G. Gidofalvi,  M. Goldey,  J. Gomes,
 C. Gonzalez-Espinoza,  S. Gulania,  A. Gunina,  M. W. D. Hanson-Heine,
 P. H. P. Harbach,  A. W. Hauser,  M. F. Herbst,  M. Hernandez Vera,
 M. Hodecker,  Z. C. Holden,  S. Houck,  Xunkun Huang,  Kerwin Hui,
 B. C. Huynh,  M. Ivanov,  Hyunjun Ji,  Hanjie Jiang,  B. Kaduk,  S. Kaehler,
 K. Khistyaev,  Jaehoon Kim,  P. Klunzinger,  Z. Koczor-Benda,
 Joong Hoon Koh,  D. Kosenkov,  L. Koulias,  T. Kowalczyk,  C. M. Krauter,
 K. Kue,  A. Kunitsa,  T. Kus,  A. Landau,  K. V. Lawler,  D. Lefrancois,
 S. Lehtola,  Rain Li,  Yi-Pei Li,  Jiashu Liang,  M. Liebenthal,
 Hung-Hsuan Lin,  You-Sheng Lin,  Fenglai Liu,  Kuan-Yu Liu,
 M. Loipersberger,  A. Luenser,  A. Manjanath,  P. Manohar,  E. Mansoor,
 S. F. Manzer,  Shan-Ping Mao,  A. V. Marenich,  T. Markovich,  S. Mason,
 S. A. Maurer,  P. F. McLaughlin,  M. F. S. J. Menger,  J.-M. Mewes,
 S. A. Mewes,  P. Morgante,  J. W. Mullinax,  K. J. Oosterbaan,  G. Paran,
 Alexander C. Paul,  Suranjan K. Paul,  F. Pavosevic,  Zheng Pei,  S. Prager,
 E. I. Proynov,  E. Ramos,  B. Rana,  A. E. Rask,  A. Rettig,  R. M. Richard,
 F. Rob,  E. Rossomme,  T. Scheele,  M. Scheurer,  M. Schneider,
 N. Sergueev,  S. M. Sharada,  W. Skomorowski,  D. W. Small,  C. J. Stein,
 Yu-Chuan Su,  E. J. Sundstrom,  Zhen Tao,  J. Thirman,  T. Tsuchimochi,
 N. M. Tubman,  S. P. Veccham,  O. Vydrov,  J. Wenzel,  J. Witte,  A. Yamada,
 Kun Yao,  S. Yeganeh,  S. R. Yost,  A. Zech,  Igor Ying Zhang,  Xing Zhang,
 Yu Zhang,  D. Zuev,  A. Aspuru-Guzik,  A. T. Bell,  N. A. Besley,
 K. B. Bravaya,  B. R. Brooks,  D. Casanova,  Jeng-Da Chai,  S. Coriani,
 C. J. Cramer,  A. E. DePrince, III,  R. A. DiStasio Jr.,  A. Dreuw,
 B. D. Dunietz,  T. R. Furlani,  W. A. Goddard III,  S. Grimme,
 S. Hammes-Schiffer,  T. Head-Gordon,  W. J. Hehre,  Chao-Ping Hsu,
 T.-C. Jagau,  Yousung Jung,  A. Klamt,  Jing Kong,  D. S. Lambrecht,
 WanZhen Liang,  N. J. Mayhall,  C. W. McCurdy,  J. B. Neaton,
 C. Ochsenfeld,  J. A. Parkhill,  R. Peverati,  V. A. Rassolov,  Yihan Shao,
 L. V. Slipchenko,  T. Stauch,  R. P. Steele,  J. E. Subotnik,
 A. J. W. Thom,  A. Tkatchenko,  D. G. Truhlar,  T. Van Voorhis,
 T. A. Wesolowski,  K. B. Whaley,  H. L. Woodcock III,  P. M. Zimmerman,
 S. Faraji,  P. M. W. Gill,  M. Head-Gordon,  J. M. Herbert,  A. I. Krylov

 Additional authors for Version 5.4.1:
 S. Kotaru,  Shaozhi Li,  Xiangyuan Li,  F. Matz,  A. Molle,  Haisheng Ren,
 Yingli Su,  Hung-Yi Tsai,  C. Utku,  Fang Wang

 Contributors to earlier versions of Q-Chem not listed above:
 R. D. Adamson,  B. Austin,  R. Baer,  J. Baker,  G. J. O. Beran,
 K. Brandhorst,  S. T. Brown,  E. F. C. Byrd,  A. K. Chakraborty,
 G. K. L. Chan,  Chun-Min Chang,  Yunqing Chen,  C.-L. Cheng,
 Siu Hung Chien,  D. M. Chipman,  D. L. Crittenden,  H. Dachsel,
 R. J. Doerksen,  A. D. Dutoi,  R. G. Edgar,  J. Fosso-Tande,
 L. Fusti-Molnar,  D. Ghosh,  A. Ghysels,  A. Golubeva-Zadorozhnaya,
 J. Gonthier,  M. S. Gordon,  S. R. Gwaltney,  G. Hawkins,  J. E. Herr,
 A. Heyden,  S. Hirata,  E. G. Hohenstein,  G. Kedziora,  F. J. Keil,
 C. Kelley,  Jihan Kim,  R. A. King,  R. Z. Khaliullin,  P. P. Korambath,
 W. Kurlancheek,  A. Laurent,  A. M. Lee,  M. S. Lee,  S. V. Levchenko,
 Ching Yeh Lin,  D. Liotard,  E. Livshits,  R. C. Lochan,  I. Lotan,
 L. A. Martinez-Martinez,  P. E. Maslen,  N. Nair,  D. P. O'Neill,
 D. Neuhauser,  E. Neuscamman,  C. M. Oana,  R. Olivares-Amaya,  R. Olson,
 T. M. Perrine,  B. Peters,  P. A. Pieniazek,  A. Prociuk,  Y. M. Rhee,
 J. Ritchie,  M. A. Rohrdanz,  E. Rosta,  N. J. Russ,  H. F. Schaefer III,
 M. W. Schmidt,  N. E. Schultz,  S. Sharma,  N. Shenvi,  C. D. Sherrill,
 A. C. Simmonett,  A. Sodt,  T. Stein,  D. Stuck,  K. S. Thanthiriwatte,
 V. Vanovschi,  L. Vogt,  Tao Wang,  A. Warshel,  M. A. Watson,
 C. F. Williams,  Q. Wu,  X. Xu,  Jun Yang,  W. Zhang,  Yan Zhao

 Please cite Q-Chem as follows:
 Y. Shao et al., Mol. Phys. 113, 184-215 (2015)
 DOI: 10.1080/00268976.2014.952696

 Q-Chem 5.4.1 for Intel X86 EM64T Linux

 Parts of Q-Chem use Armadillo 9.900.5 (Nocturnal Misbehaviour).
 http://arma.sourceforge.net/

 Q-Chem begins on Fri Jul  1 20:00:21 2022

 Host: p09r14n09.grace.hpc.yale.internal
0

     Scratch files written to /home/tl686/scratch60/qchem_dev/scratch/qchem9037//
 Processing $rem in /home/tl686/qchem_dev/qchem/config/preferences:
 Processing $rem in /home/tl686/.qchemrc:
Applying user defined connections for MM calculations
The previous job contains 0 fragments, simply inherited here

 Checking the input file for inconsistencies... 	...done.

--------------------------------------------------------------
User input:
--------------------------------------------------------------

$molecule
READ
$end

$qm_atoms
1:11
$end

$force_field_params
NumAtomTypes 3
AtomType -1   0.0238     3.11   0.2868
AtomType -2   0.07124    3.30   0.6597
AtomType -3  -0.0760     3.09   0.1434
$end

$rem
     JOBTYPE  freq
     METHOD   bp86
     BASIS    def2-msvp
     MAX_SCF_CYCLES   800
     INPUT_BOHR TRUE
     SYM_IGNORE TRUE
     SCF_GUESS     read
     user_connect            true
     qm_mm_interface         ONIOM
     force_field             oplsaa
$end

--------------------------------------------------------------

    2   -1830.5183194956      6.94E-09 Convergence criterion met
 Total energy in the final basis set = -1828.30243923

                    Orbital Energies (a.u.)
 --------------------------------------------------------------

 Alpha MOs
 -- Occupied --
******** -29.6385 -25.5980 -25.5854 -25.5820 -18.8907 -18.8893 -18.8788
-18.8764 -18.8699 -10.0629 -10.0536 -10.0468 -10.0460 -10.0437  -3.3237
 -2.1594  -2.1355  -2.1267  -1.0799  -1.0525  -1.0520  -1.0354  -1.0244
 -0.5788  -0.5309  -0.5206  -0.5182  -0.5147  -0.4592  -0.4505  -0.4450
 -0.4364  -0.4344  -0.4296  -0.4235  -0.4181  -0.4106  -0.4090  -0.4024
 -0.4005  -0.3957  -0.3938  -0.3761  -0.2814  -0.2755  -0.2333  -0.2290

          Ground-State Mulliken Net Atomic Charges

     Atom                 Charge (a.u.)
  ----------------------------------------
      1 Fe                   -0.473543
      2 C                     0.188457
      3 C                     0.213591
      4 C                     0.205049
      5 C                     0.224533
      6 C                     0.239719
      7 O                    -0.082081
      8 O                    -0.119739
      9 O                    -0.151105
     10 O                    -0.111675
     11 O                    -0.133206
  ----------------------------------------
  Sum of atomic charges =     0.000000

                    Cartesian Multipole Moments
 -----------------------------------------------------------------
    Charge (ESU x 10^10)
                -0.0000
    Dipole Moment (Debye)
         X       0.1795117251      Y      -0.3412619788      Z       0.0158340317
       Tot       0.3859208652
    Quadrupole Moments (Debye-Ang)
        XX     209.1607     XY    -259.9162     YY     -95.1142
        XZ      17.2023     YZ     -10.5432     ZZ     -66.9524
