 Q-Chem 5.4 (devel), Q-Chem, Inc., Pleasanton, CA (2021)
 Q-Chem 5.4.1 for Intel X86 EM64T Linux

User input:
--------------------------------------------------------------
$molecule
0   1
 Fe -24.03021988 17.94957654 40.26891767    -1  0   0   0   0
C -22.42316763 15.11026182 40.84906580    -2  0   0   0   0
C -25.56366791 20.89632475 39.63591033    -2  0   0   0   0
C -22.91124821 19.19236135 43.41557881    -2  0   0   0   0
C -21.95237408 18.70613745 37.65535219    -2  0   0   0   0
C -26.93858891 16.27856651 39.71357930    -2  0   0   0   0
O -21.27108435 13.19264057 41.13454073    -3  0   0   0   0
O -26.73699372 22.77686538 39.32929347    -3  0   0   0   0
O -21.54208954 19.78729459 44.97967493    -3  0   0   0   0
O -20.56025822 18.86021137 36.07022663    -3  0   0   0   0
O -28.67984169 15.09954925 38.98589542    -3  0   0   0   0
H -1.28790505 5.71851674 48.96647496      6     13    0    0    0
C -0.49780017 3.91835859 48.46089180     1     12    14    15    16
H 1.31529508 3.73233045 49.47385237     6     13    0    0    0
H -1.65696770 2.50059399 49.35931813     6     13    0    0    0
C 0.04197691 3.52741743 45.62046923     2     13    17    18    19
H 0.63905503 5.31294757 45.18320119     6     16    0    0    0
H 1.78833276 2.34856616 45.22937188     6     16    0    0    0
C -2.31179523 2.89009928 44.07138637     2     16    20   21   22
H -2.89541416 0.97050347 44.36320879     6     19    0    0    0
H -3.96912740 4.09546174 44.65096087     6     19    0    0    0
C -1.86476052 2.97940959 41.16084248     2     19   23   24   25
H -0.92278455 4.81279037 40.85172505     6    22    0    0    0
H -0.70028035 1.37603793 40.62942806     6    22    0    0    0
C -4.41735142 2.95874064 39.72413967     2    22   26   27   28
H -5.41728589 1.15898739 39.95495868     6    25    0    0    0
H -5.72443100 4.27585291 40.88345067     6    25    0    0    0
C -4.33050697 3.63754097 36.87525127     2    25   29   30   31
H -3.44826382 5.55971870 36.64290181     6    28    0    0    0
H -3.03847726 2.26376244 35.88955916     6    28    0    0    0
C -7.04205358 3.60265812 35.59581998     2    28   32   33   34
H -7.79945113 1.76722594 35.98107444     6    31    0    0    0
H -8.23485674 5.00459929 36.53793448     6    31    0    0    0
C -7.01312617 4.20973829 32.77608389     2    31   35   36   37
H -6.45833172 6.20060329 32.36046579     6    34    0    0    0
H -5.77567022 2.79497108 31.73817508     6    34    0    0    0
C -9.56217006 3.66732968 31.68698392     2    34   38   39   40
H -9.95426387 1.66997934 32.35541980     6    37    0    0    0
H -10.96952736 4.83551343 32.62746116     6    37    0    0    0
C -9.79238366 3.84233211 28.77128711     2    37   41   42   43
H -9.33379556 5.70586625 28.09150803     6    40    0    0    0
H -8.21120696 2.63373192 27.99352859     6    40    0    0    0
C -12.34374269 2.89616298 27.71363003     2    40   44   45   46
H -12.27258865 0.94593958 27.75032359     6    43    0    0    0
H -13.95867376 3.29073346 28.92944137     6    43    0    0    0
C -12.85319078 3.80464437 24.97624967     1    43   47   48   49
H -13.06374641 5.91863957 25.18091576     6    46    0    0    0
H -14.68372237 2.95654698 24.34840043     6    46    0    0    0
H -11.58579705 3.14656111 23.66229053     6    46    0    0    0
H -24.13392149 13.05303594 31.30250361     6     51    0    0    0
C -23.29986134 12.72006715 33.28039522     1     50    52    53    54
H -22.59495790 14.48895907 33.82375243     6     51    0    0    0
H -24.84953236 12.20726475 34.54284617     6     51    0    0    0
C -21.19530115 10.75348887 33.43157621     2     51    55    56    57
H -20.66311840 10.29938065 35.33903992     6     54    0    0    0
H -21.82156583 8.87232713 33.06206011     6     54    0    0    0
C -18.82474243 11.49434919 31.98178647     2     54    58   59   60
H -18.30882528 13.52560452 32.16375166     6     57    0    0    0
H -17.32807508 10.49640628 32.84907733     6     57    0    0    0
C -19.04691531 10.73162361 29.35277919     2     57   61   62   63
H -19.15589483 8.65505030 29.48673522     6    60    0    0    0
H -20.67002959 11.64722223 28.53902001     6    60    0    0    0
C -16.83537805 11.17086774 27.74652059     2    60   64   65   66
H -16.35991396 13.22390854 27.60350060     6    63    0    0    0
H -15.18765603 10.26326184 28.73683695     6    63    0    0    0
C -16.97717505 9.88730805 25.14420016     2    63   67   68   69
H -15.26331479 10.26550699 24.03507424     6    66    0    0    0
H -17.14302756 7.84308287 25.46387340     6    66    0    0    0
C -19.15911986 11.09588667 23.50357469     2    66   70   71   72
H -20.95274699 10.60691458 24.19309330     6    69    0    0    0
H -18.95804269 13.16549828 23.53684959     6    69    0    0    0
C -19.05344770 10.25385575 20.75976350     2    69   73   74   75
H -17.51971412 11.23896476 19.94787493     6    72    0    0    0
H -18.39131024 8.37071252 20.78305840     6    72    0    0    0
C -21.53570547 10.79449796 19.37298172     2    72   76   77   78
H -23.07905295 10.28668261 20.70215225     6    75    0    0    0
H -21.69651611 12.71877861 18.81185308     6    75    0    0    0
C -21.84636403 9.06955711 17.09574398     2    75   79   80   81
H -20.63466136 9.57885010 15.68824148     6    78    0    0    0
H -21.49379350 7.20428461 17.66480467     6    78    0    0    0
C -24.66866500 9.08016525 15.94147717     2    78   82   83   84
H -25.92108122 7.70906706 16.68149505     6    81    0    0    0
H -25.66488379 10.92920389 16.23143808     6    81    0    0    0
C -24.55142807 8.69305919 13.11494339     1    81   85   86   87
H -26.39750896 8.46842551 12.26463809     6    84    0    0    0
H -23.89632099 6.82197365 12.47402352     6    84    0    0    0
H -23.42944504 10.21333416 12.04762679     6    84    0    0    0
H 7.77371454 18.38043502 35.36767228     6     89    0    0    0
C 7.97010557 16.68081509 34.24550107     1     88    90    91    92
H 9.94529564 16.01539063 34.33818281     6     89    0    0    0
H 6.90342588 15.23351857 35.14377127     6     89    0    0    0
C 6.98333503 17.49574356 31.53598130     2     89    93    94    95
H 5.22730184 18.56312262 31.67798356     6     92    0    0    0
H 8.43760070 18.62818829 30.69452196     6     92    0    0    0
C 6.60675091 15.04553817 29.97577197     2     92    96   97   98
H 8.30630810 13.83210698 30.27059661     6     95    0    0    0
H 4.82008148 14.25790211 30.91169360     6     95    0    0    0
C 5.80108338 15.40893966 27.29609247     2     95   99   100   101
H 3.95143760 16.11560392 26.81443318     6    98    0    0    0
H 6.99643610 17.03329215 26.56966730     6    98    0    0    0
C 6.41727233 12.92288688 25.71179568     2    98   102   103   104
H 8.45267384 12.92784744 25.59185950     6    101    0    0    0
H 5.90119707 11.18853673 26.82078861     6    101    0    0    0
C 5.30250760 13.04471272 23.10268495     2    101   105   106   107
H 3.33082142 13.58658335 23.06036291     6    104    0    0    0
H 6.40752615 14.49066602 22.02324896     6    104    0    0    0
C 5.48812443 10.55571492 21.62100704     2    104   108   109   110
H 7.19261066 9.53313408 22.06938652     6    107    0    0    0
H 4.03084611 9.30886741 22.53361534     6    107    0    0    0
C 5.00121430 10.54271291 18.90420261     2    107   111   112   113
H 3.04734768 11.11853726 18.77028482     6    110    0    0    0
H 5.95345269 11.83509496 17.65749080     6    110    0    0    0
C 5.18958557 7.92189348 17.66185288     2    110   114   115   116
H 7.10210294 7.74263618 16.96647736     6    113    0    0    0
H 5.07999528 6.37696779 19.05336236     6    113    0    0    0
C 3.24102889 7.69799007 15.52335215     2    113   117   118   119
H 1.30548268 7.46577634 16.11671766     6    116    0    0    0
H 3.27673007 9.50612305 14.33531169     6    116    0    0    0
C 3.83286404 5.61130067 13.70473630     2    116   120   121   122
H 2.57429114 5.95415670 12.11106323     6    119    0    0    0
H 5.79721196 5.73751561 13.07687897     6    119    0    0    0
C 3.24092023 2.97726351 14.45254774     1    119   123   124   125
H 4.10767149 1.84100224 13.10358525     6    122    0    0    0
H 1.21640234 2.79840165 14.62748322     6    122    0    0    0
H 4.03886678 2.71684222 16.33069852     6    122    0    0    0
H 4.07332633 34.55001317 42.27171494     6     127    0    0    0
C 4.37294306 32.50899236 42.29142493     1     126    128    129    130
H 4.95861958 32.09288319 40.33621326     6     127    0    0    0
H 6.08294115 31.99426765 43.49767832     6     127    0    0    0
C 1.98727260 31.08535928 42.84212264     2     127    131    132    133
H 0.69823883 31.64543631 41.15454692     6     130    0    0    0
H 2.08149319 29.10873417 42.89979380     6     130    0    0    0
C 0.96223887 32.07013337 45.38647034     2     130    134   135   136
H 1.89946065 31.40023730 47.02950828     6     133    0    0    0
H 1.01003987 34.10157290 45.25050818     6     133    0    0    0
C -1.89048203 31.49536265 45.75322751     2     133   137   138   139
H -3.01396275 32.30271706 44.30128292     6    136    0    0    0
H -1.89101637 29.40908172 45.68800611     6    136    0    0    0
C -2.68883562 32.41546942 48.37559624     2    136   140   141   142
H -1.24884725 31.74371992 49.61296722     6    139    0    0    0
H -2.58969192 34.61045738 48.56211951     6    139    0    0    0
C -5.32548306 31.40076651 49.21371674     2    139   143   144   145
H -6.53437849 32.32658468 47.91259896     6    142    0    0    0
H -5.52041840 29.43600987 48.75686355     6    142    0    0    0
C -6.18782306 32.05965310 51.88584545     2    142   146   147   148
H -4.57678614 31.79814747 53.17989988     6    145    0    0    0
H -6.39779637 34.08732522 52.04149283     6    145    0    0    0
C -8.48182696 30.79677251 53.06958214     2    145   149   150   151
H -10.25334729 30.87754623 51.99191128     6    148    0    0    0
H -7.97610301 28.74709581 53.31262604     6    148    0    0    0
C -9.14128339 31.82767647 55.71875353     2    148   152   153   154
H -7.42579992 32.09633928 56.81041993     6    151    0    0    0
H -9.98222420 33.70735983 55.86882561     6    151    0    0    0
C -10.87724589 30.02582346 57.21646294     2    151   155   156   157
H -11.55220675 30.94647554 58.83619666     6    154    0    0    0
H -12.61634832 29.75485126 56.06567841     6    154    0    0    0
C -9.77888460 27.48533371 57.98371825     2    154   158   159   160
H -9.68038420 26.21385819 56.31590911     6    157    0    0    0
H -7.94231154 27.55915520 58.67809134     6    157    0    0    0
C -11.60500736 26.14564438 59.94139606     1    157   161   162   163
H -11.55461575 27.55319455 61.48618314     6    160    0    0    0
H -10.91769429 24.41491914 60.68347134     6    160    0    0    0
H -13.59447595 26.01909051 59.28077219     6    160    0    0    0
H 0.90091615 45.47089108 34.00917968     6     165    0    0    0
C 1.76043987 44.01511809 35.19180171     1     164    166    167    168
H 0.55203252 42.45668136 34.75476130     6     165    0    0    0
H 3.58170398 43.45849223 34.40485686     6     165    0    0    0
C 1.99777359 44.79883232 38.00432405     2     165    169    170    171
H 3.10478498 46.60793320 38.27444350     6     168    0    0    0
H 0.15768965 45.15484122 38.62202488     6     168    0    0    0
C 3.40460477 42.66538893 39.30233227     2     168    172   173   174
H 2.45582548 40.91304016 38.77490173     6     171    0    0    0
H 5.34874913 42.54558683 38.63898491     6     171    0    0    0
C 3.27469749 43.06383574 42.20480447     2     171   175   176   177
H 3.89941238 44.86490547 42.79145723     6    174    0    0    0
H 1.28775396 43.20929814 42.76616933     6    174    0    0    0
C 4.43111403 40.87843970 43.71158214     2    174   178   179   180
H 3.39555249 39.19322898 42.91897232     6    177    0    0    0
H 6.29946454 40.35612556 43.15753260     6    177    0    0    0
C 4.09952184 41.14010529 46.51579316     2    177   181   182   183
H 5.71859548 42.45793311 47.02485626     6    180    0    0    0
H 2.34625398 42.06772444 47.16851054     6    180    0    0    0
C 4.33268515 38.83700442 48.24523682     2    180   184   185   186
H 2.86777160 37.59563831 47.50020993     6    183    0    0    0
H 6.08892735 37.87938094 47.91244625     6    183    0    0    0
C 3.58620033 39.29591785 51.17179786     2    183   187   188   189
H 5.16798967 40.04414657 51.86173776     6    186    0    0    0
H 1.87467458 40.55376214 51.29801561     6    186    0    0    0
C 3.15854264 36.74917178 52.59026942     2    186   190   191   192
H 1.26186730 36.22038464 52.22292789     6    189    0    0    0
H 4.50950177 35.32444576 51.86969955     6    189    0    0    0
C 3.80601584 37.26301377 55.23879335     2    189   193   194   195
H 5.49655724 38.33178408 55.62172396     6    192    0    0    0
H 2.21871703 38.18694656 56.26630382     6    192    0    0    0
C 4.24802278 34.76586961 56.70360530     2    192   196   197   198
H 2.41286759 33.73460023 56.64920136     6    195    0    0    0
H 5.57887918 33.41668040 55.80976206     6    195    0    0    0
C 4.79148005 35.22701919 59.53519586     1    195   199   200   201
H 4.53515399 33.56848284 60.72272490     6    198    0    0    0
H 3.23561182 36.40275358 60.17961155     6    198    0    0    0
H 6.77160985 35.92334366 59.75048584     6    198    0    0    0
H -11.16082022 31.14821639 24.45022189     6     203    0    0    0
C -10.02253308 32.86660740 24.29347214     1     202    204    205    206
H -11.30762911 34.45890918 24.11483018     6     203    0    0    0
H -9.02959986 33.07089637 26.00282824     6     203    0    0    0
C -8.00652491 32.55401295 22.02434673     2     203    207    208    209
H -6.44850094 33.83307498 22.14382715     6     206    0    0    0
H -7.29085292 30.62803956 22.28717369     6     206    0    0    0
C -9.34938801 32.64954544 19.36137170     2     206    210   211   212
H -7.99860873 32.15240296 17.75346649     6     209    0    0    0
H -10.89148845 31.28846453 19.43856547     6     209    0    0    0
C -10.29964087 35.18056009 18.47708228     2     209   213   214   215
H -11.79059249 35.43782937 19.81428005     6    212    0    0    0
H -8.69278919 36.40819840 18.70368259     6    212    0    0    0
C -11.73476066 35.05599241 15.85457759     2    212   216   217   218
H -10.23324084 34.87021937 14.46277539     6    215    0    0    0
H -12.99542715 33.24953325 15.74600672     6    215    0    0    0
C -13.51785157 37.21822292 15.41823102     2    215   219   220   221
H -15.04154181 36.97893716 16.69171915     6    218    0    0    0
H -12.48580528 38.86846953 15.80980643     6    218    0    0    0
C -14.68202201 37.06554602 12.76777851     2    218   222   223   224
H -13.31377174 36.71416542 11.30902541     6    221    0    0    0
H -15.76489521 35.40047548 12.88114167     6    221    0    0    0
C -16.56258417 39.11420874 12.33134937     2    221   225   226   227
H -17.73721559 39.61849921 13.98230544     6    224    0    0    0
H -15.40648658 40.78617884 11.89883423     6    224    0    0    0
C -17.88932196 38.61905209 9.83624034     2    224   228   229   230
H -16.47448229 38.08844059 8.43682786     6    227    0    0    0
H -19.05736910 36.95891642 10.50255158     6    227    0    0    0
C -19.73042047 40.73497252 8.89319032     2    227   231   232   233
H -21.20047685 40.64621127 10.41497713     6    230    0    0    0
H -18.69399985 42.41858177 8.98032735     6    230    0    0    0
C -20.73753407 40.42323892 6.26521705     2    230   234   235   236
H -19.10351404 40.75844662 4.90690822     6    233    0    0    0
H -21.33764474 38.40656314 6.09571116     6    233    0    0    0
C -23.11427262 42.23494076 5.88580302     1    233   237   238   239
H -23.34742239 42.64468400 3.77252983     6    236    0    0    0
H -23.15464732 44.18492191 6.84723964     6    236    0    0    0
H -24.76489164 41.42144640 6.60990827     6    236    0    0    0
H -16.74922569 10.64257278 11.90790526     6     241    0    0    0
C -15.20200087 11.86990215 12.85816789     1     240    242    243    244
H -14.31967624 13.10062156 11.48409314     6     241    0    0    0
H -15.81837580 13.02502232 14.41076312     6     241    0    0    0
C -12.94798932 10.13282186 13.92405240     2     241    245    246    247
H -12.08226536 9.15567250 12.41703066     6     244    0    0    0
H -11.64696527 11.56240773 14.76588234     6     244    0    0    0
C -13.63667766 8.00172806 15.73043031     2     244    248   249   250
H -12.00989865 6.99675855 16.43744788     6     247    0    0    0
H -14.45182118 9.08273402 17.39338570     6     247    0    0    0
C -15.57833463 6.03704199 14.83353635     2     247   251   252   253
H -16.16134824 4.73683852 16.37229862     6    250    0    0    0
H -17.23761939 7.03230003 14.50767341     6    250    0    0    0
C -14.90646349 4.49669028 12.38472004     2    250   254   255   256
H -14.40490369 5.69271829 10.76925213     6    253    0    0    0
H -13.27379766 3.48690615 12.78765381     6    253    0    0    0
C -16.98146855 2.71549657 11.50032776     2    253   257   258   259
H -16.20928988 1.00056037 10.53213678     6    256    0    0    0
H -18.03796357 1.96564366 13.07676203     6    256    0    0    0
C -18.84414646 4.05799449 9.92975263     2    256   260   261   262
H -19.72354544 5.69459641 11.00025010     6    259    0    0    0
H -17.99447525 4.90153476 8.23933456     6    259    0    0    0
C -20.87233457 2.15383402 9.07693395     2    259   263   264   265
H -19.71711672 0.72234055 8.22851852     6    262    0    0    0
H -21.74235881 1.44892487 10.78396329     6    262    0    0    0
C -22.79554095 3.24838742 7.15245422     2    262   266   267   268
H -23.52112036 4.91704621 7.98776847     6    265    0    0    0
H -21.78361918 3.80375128 5.37573214     6    265    0    0    0
C -24.79408676 1.29053147 6.41724856     2    265   269   270   271
H -23.85732463 -0.40853405 5.48062130     6    268    0    0    0
H -25.38050267 0.42533276 8.26412278     6    268    0    0    0
C -27.02232381 2.12531465 4.74573146     2    268   272   273   274
H -28.09731325 3.59561014 5.89829302     6    271    0    0    0
H -26.38849010 3.02900144 2.94162138     6    271    0    0    0
C -28.97436689 0.03986106 3.97918054     1    271   275   276   277
H -27.98936341 -1.65239933 3.12919910     6    274    0    0    0
H -30.25033283 0.74849884 2.50192027     6    274    0    0    0
H -29.94116061 -0.71774192 5.64989612     6    274    0    0    0
H -0.12244704 29.74519635 20.87011007     6     279    0    0    0
C -1.28941010 28.70811797 19.52231063     1     278    280    281    282
H -2.27264445 30.16828829 18.44821400     6     279    0    0    0
H -0.09238482 27.71683007 18.29026919     6     279    0    0    0
C -3.17819943 26.84021475 20.58925478     2     279    283    284    285
H -2.06741229 25.65802373 21.82664562     6     282    0    0    0
H -4.65080315 27.55696265 21.71261458     6     282    0    0    0
C -4.25776366 24.91644595 18.60552615     2     282    286   287   288
H -3.01248806 24.76958521 16.96407826     6     285    0    0    0
H -4.56440047 23.06160315 19.40456901     6     285    0    0    0
C -6.69068454 25.89926481 17.57452345     2     285   289   290   291
H -7.74434734 25.65501078 19.18923004     6    288    0    0    0
H -6.59280501 27.89625189 16.90369591     6    288    0    0    0
C -7.74490405 24.44554964 15.33592107     2    288   292   293   294
H -6.71877263 25.05989591 13.57590282     6    291    0    0    0
H -7.42637678 22.37263974 15.33677489     6    291    0    0    0
C -10.63491324 25.12612251 15.01417385     2    291   295   296   297
H -11.51506622 24.41028291 16.77119994     6    294    0    0    0
H -10.86327365 27.24618454 14.86247739     6    294    0    0    0
C -11.89605476 23.91038265 12.68978944     2    294   298   299   300

   18   -1830.5111459507      8.85E-09 Convergence criterion met
 Total energy in the final basis set = -1828.17289201
 Total job time:  16.61s(wall), 29.62s(cpu)
        *  Thank you very much for using Q-Chem.  Have a nice day.  *

User input: 2 of 2

                  Welcome to Q-Chem
     A Quantum Leap Into The Future Of Chemistry

 Q-Chem 5.4 (devel), Q-Chem, Inc., Pleasanton, CA (2021)

 E. Epifanovsky,  A. T. B. Gilbert,  Xintian Feng,  Joonho Lee,  Yuezhi Mao,
 N. Mardirossian,  P. Pokhilko,  A. White,  M. Wormit,  M. P. Coons,
 A. L. Dempwolff,  Zhengting Gan,  D. Hait,  P. R. Horn,  L. D. Jacobson,
 I. Kaliman,  J. Kussmann,  A. W. Lange,  Ka Un Lao,  D. S. Levine,  Jie Liu,
 S. C. McKenzie,  A. F. Morrison,  K. Nanda,  F. Plasser,  D. R. Rehn,
 M. L. Vidal,  Zhi-Qiang You,  Ying Zhu,  B. Alam,  B. Albrecht,
 A. Aldossary,  E. Alguire,  J. H. Andersen,  D. Barton,  K. Begam,  A. Behn,
 Y. A. Bernard,  E. J. Berquist,  H. Burton,  A. Carreras,  K. Carter-Fenk,
 R. Chakraborty,  A. D. Chien,  K. D. Closser,  V. Cofer-Shabica,
 S. Dasgupta,  Jia Deng,  M. de Wergifosse,  M. Diedenhofen,  Hainam Do,
 S. Ehlert,  Po-Tung Fang,  S. Fatehi,  Qingguo Feng,  T. Friedhoff,
 J. Gayvert,  Qinghui Ge,  G. Gidofalvi,  M. Goldey,  J. Gomes,
 C. Gonzalez-Espinoza,  S. Gulania,  A. Gunina,  M. W. D. Hanson-Heine,
 P. H. P. Harbach,  A. W. Hauser,  M. F. Herbst,  M. Hernandez Vera,
 M. Hodecker,  Z. C. Holden,  S. Houck,  Xunkun Huang,  Kerwin Hui,
 B. C. Huynh,  M. Ivanov,  Hyunjun Ji,  Hanjie Jiang,  B. Kaduk,  S. Kaehler,
 K. Khistyaev,  Jaehoon Kim,  P. Klunzinger,  Z. Koczor-Benda,
 Joong Hoon Koh,  D. Kosenkov,  L. Koulias,  T. Kowalczyk,  C. M. Krauter,
 K. Kue,  A. Kunitsa,  T. Kus,  A. Landau,  K. V. Lawler,  D. Lefrancois,
 S. Lehtola,  Rain Li,  Yi-Pei Li,  Jiashu Liang,  M. Liebenthal,
 Hung-Hsuan Lin,  You-Sheng Lin,  Fenglai Liu,  Kuan-Yu Liu,
 M. Loipersberger,  A. Luenser,  A. Manjanath,  P. Manohar,  E. Mansoor,
 S. F. Manzer,  Shan-Ping Mao,  A. V. Marenich,  T. Markovich,  S. Mason,
 S. A. Maurer,  P. F. McLaughlin,  M. F. S. J. Menger,  J.-M. Mewes,
 S. A. Mewes,  P. Morgante,  J. W. Mullinax,  K. J. Oosterbaan,  G. Paran,
 Alexander C. Paul,  Suranjan K. Paul,  F. Pavosevic,  Zheng Pei,  S. Prager,
 E. I. Proynov,  E. Ramos,  B. Rana,  A. E. Rask,  A. Rettig,  R. M. Richard,
 F. Rob,  E. Rossomme,  T. Scheele,  M. Scheurer,  M. Schneider,
 N. Sergueev,  S. M. Sharada,  W. Skomorowski,  D. W. Small,  C. J. Stein,
 Yu-Chuan Su,  E. J. Sundstrom,  Zhen Tao,  J. Thirman,  T. Tsuchimochi,
 N. M. Tubman,  S. P. Veccham,  O. Vydrov,  J. Wenzel,  J. Witte,  A. Yamada,
 Kun Yao,  S. Yeganeh,  S. R. Yost,  A. Zech,  Igor Ying Zhang,  Xing Zhang,
 Yu Zhang,  D. Zuev,  A. Aspuru-Guzik,  A. T. Bell,  N. A. Besley,
 K. B. Bravaya,  B. R. Brooks,  D. Casanova,  Jeng-Da Chai,  S. Coriani,
 C. J. Cramer,  A. E. DePrince, III,  R. A. DiStasio Jr.,  A. Dreuw,
 B. D. Dunietz,  T. R. Furlani,  W. A. Goddard III,  S. Grimme,
 S. Hammes-Schiffer,  T. Head-Gordon,  W. J. Hehre,  Chao-Ping Hsu,
 T.-C. Jagau,  Yousung Jung,  A. Klamt,  Jing Kong,  D. S. Lambrecht,
 WanZhen Liang,  N. J. Mayhall,  C. W. McCurdy,  J. B. Neaton,
 C. Ochsenfeld,  J. A. Parkhill,  R. Peverati,  V. A. Rassolov,  Yihan Shao,
 L. V. Slipchenko,  T. Stauch,  R. P. Steele,  J. E. Subotnik,
 A. J. W. Thom,  A. Tkatchenko,  D. G. Truhlar,  T. Van Voorhis,
 T. A. Wesolowski,  K. B. Whaley,  H. L. Woodcock III,  P. M. Zimmerman,
 S. Faraji,  P. M. W. Gill,  M. Head-Gordon,  J. M. Herbert,  A. I. Krylov

 Additional authors for Version 5.4.1:
 S. Kotaru,  Shaozhi Li,  Xiangyuan Li,  F. Matz,  A. Molle,  Haisheng Ren,
 Yingli Su,  Hung-Yi Tsai,  C. Utku,  Fang Wang

 Contributors to earlier versions of Q-Chem not listed above:
 R. D. Adamson,  B. Austin,  R. Baer,  J. Baker,  G. J. O. Beran,
 K. Brandhorst,  S. T. Brown,  E. F. C. Byrd,  A. K. Chakraborty,
 G. K. L. Chan,  Chun-Min Chang,  Yunqing Chen,  C.-L. Cheng,
 Siu Hung Chien,  D. M. Chipman,  D. L. Crittenden,  H. Dachsel,
 R. J. Doerksen,  A. D. Dutoi,  R. G. Edgar,  J. Fosso-Tande,
 L. Fusti-Molnar,  D. Ghosh,  A. Ghysels,  A. Golubeva-Zadorozhnaya,
 J. Gonthier,  M. S. Gordon,  S. R. Gwaltney,  G. Hawkins,  J. E. Herr,
 A. Heyden,  S. Hirata,  E. G. Hohenstein,  G. Kedziora,  F. J. Keil,
 C. Kelley,  Jihan Kim,  R. A. King,  R. Z. Khaliullin,  P. P. Korambath,
 W. Kurlancheek,  A. Laurent,  A. M. Lee,  M. S. Lee,  S. V. Levchenko,
 Ching Yeh Lin,  D. Liotard,  E. Livshits,  R. C. Lochan,  I. Lotan,
 L. A. Martinez-Martinez,  P. E. Maslen,  N. Nair,  D. P. O'Neill,
 D. Neuhauser,  E. Neuscamman,  C. M. Oana,  R. Olivares-Amaya,  R. Olson,
 T. M. Perrine,  B. Peters,  P. A. Pieniazek,  A. Prociuk,  Y. M. Rhee,
 J. Ritchie,  M. A. Rohrdanz,  E. Rosta,  N. J. Russ,  H. F. Schaefer III,
 M. W. Schmidt,  N. E. Schultz,  S. Sharma,  N. Shenvi,  C. D. Sherrill,
 A. C. Simmonett,  A. Sodt,  T. Stein,  D. Stuck,  K. S. Thanthiriwatte,
 V. Vanovschi,  L. Vogt,  Tao Wang,  A. Warshel,  M. A. Watson,
 C. F. Williams,  Q. Wu,  X. Xu,  Jun Yang,  W. Zhang,  Yan Zhao

 Please cite Q-Chem as follows:
 Y. Shao et al., Mol. Phys. 113, 184-215 (2015)
 DOI: 10.1080/00268976.2014.952696

 Q-Chem 5.4.1 for Intel X86 EM64T Linux

 Parts of Q-Chem use Armadillo 9.900.5 (Nocturnal Misbehaviour).
 http://arma.sourceforge.net/

 Q-Chem begins on Wed Jun 22 08:05:42 2022

 Host: p09r16n04.grace.hpc.yale.internal
0

     Scratch files written to /home/tl686/scratch60/qchem_dev/scratch/qchem69565//
 Processing $rem in /home/tl686/qchem_dev/qchem/config/preferences:
 Processing $rem in /home/tl686/.qchemrc:
Applying user defined connections for MM calculations
The previous job contains 0 fragments, simply inherited here

 Checking the input file for inconsistencies... 	...done.

--------------------------------------------------------------
User input:
--------------------------------------------------------------

$molecule
READ
$end

$qm_atoms
1:11
$end

$force_field_params
NumAtomTypes 3
AtomType -1   0.0238     3.11   0.2868
AtomType -2   0.07124    3.30   0.6597
AtomType -3  -0.0760     3.09   0.1434
$end

$rem
     JOBTYPE  freq
     METHOD   bp86
     BASIS    def2-msvp
     MAX_SCF_CYCLES   800
     INPUT_BOHR TRUE
     SYM_IGNORE TRUE
     SCF_GUESS     read
     user_connect            true
     qm_mm_interface         ONIOM
     force_field             oplsaa
$end

--------------------------------------------------------------

    3   -1830.5111459509      4.91E-09 Convergence criterion met
 Total energy in the final basis set = -1828.17289201

                    Orbital Energies (a.u.)
 --------------------------------------------------------------

 Alpha MOs
 -- Occupied --
******** -29.6313 -25.5919 -25.5771 -25.5750 -18.8879 -18.8846 -18.8818
-18.8736 -18.8707 -10.0572 -10.0488 -10.0466 -10.0411 -10.0397  -3.3171
 -2.1557  -2.1258  -2.1202  -1.0798  -1.0698  -1.0466  -1.0360  -1.0315
 -0.5741  -0.5244  -0.5211  -0.5177  -0.5114  -0.4549  -0.4475  -0.4416
 -0.4381  -0.4320  -0.4308  -0.4285  -0.4219  -0.4192  -0.4070  -0.4067
 -0.4000  -0.3918  -0.3899  -0.3774  -0.2762  -0.2729  -0.2256  -0.2243

          Ground-State Mulliken Net Atomic Charges

     Atom                 Charge (a.u.)
  ----------------------------------------
      1 Fe                   -0.465611
      2 C                     0.179610
      3 C                     0.196581
      4 C                     0.219490
      5 C                     0.213739
      6 C                     0.214822
      7 O                    -0.146872
      8 O                    -0.128130
      9 O                    -0.082637
     10 O                    -0.071086
     11 O                    -0.129904
  ----------------------------------------
  Sum of atomic charges =     0.000000

                    Cartesian Multipole Moments
 -----------------------------------------------------------------
    Charge (ESU x 10^10)
                -0.0000
    Dipole Moment (Debye)
         X       0.1703468994      Y       0.7614261264      Z       0.2588711759
       Tot       0.8220718325
    Quadrupole Moments (Debye-Ang)
        XX     -74.9182     XY      -7.4784     YY     -55.7628
        XZ      -0.7504     YZ      18.4778     ZZ     -56.6342

 Frequency:      -238.54                -236.16                 -68.72
 Force Cnst:      0.5197                 0.5054                 0.0445
 Red. Mass:      15.5024                15.3791                16.0021
 IR Intens:        0.000                  0.000                  0.000
 Frequency:       -62.53                  98.96                 117.50
 Force Cnst:      0.0371                 0.0866                 0.1294
 Red. Mass:      16.1093                15.0011                15.9150
 IR Intens:        0.000                  0.000                  0.000
 Frequency:       128.55                 221.79                 279.36
 Force Cnst:      0.1525                 0.4214                 0.5960
 Red. Mass:      15.6669                14.5411                12.9617
 IR Intens:        0.000                  0.000                  0.000
 Frequency:       355.80                 365.13                 385.02
 Force Cnst:      0.9505                 1.0669                 1.2338
 Red. Mass:      12.7433                13.5827                14.1270
 IR Intens:        0.000                  0.000                  0.000
 Frequency:       460.70                 470.29                 474.19
 Force Cnst:      1.8126                 1.8598                 1.8992
 Red. Mass:      14.4948                14.2722                14.3353
 IR Intens:        0.000                  0.000                  0.000
 Frequency:       492.84                 501.44                 564.34
 Force Cnst:      1.9831                 2.2050                 2.3616
 Red. Mass:      13.8573                14.8845                12.5856
 IR Intens:        0.000                  0.000                  0.000
 Frequency:       586.97                 639.41                 678.97
 Force Cnst:      2.6833                 5.0236                 4.3340
 Red. Mass:      13.2187                20.8548                15.9563
 IR Intens:        0.000                  0.000                  0.000
 Frequency:       680.33                1847.04                1906.80
 Force Cnst:      4.1248                26.6882                28.3918
 Red. Mass:      15.1256                13.2775                13.2535
 IR Intens:        0.000                  0.000                  0.000
 Frequency:      1952.50                2158.75                2366.31
 Force Cnst:     29.8580                36.7672                44.0761
 Red. Mass:      13.2932                13.3908                13.3601
 IR Intens:        0.000                  0.000                  0.000

 STANDARD THERMODYNAMIC QUANTITIES AT   298.15 K  AND     1.00 ATM

   This Molecule has  4 Imaginary Frequencies
   Zero point vibrational energy:       25.351 kcal/mol

   Atom    1 Element Fe Has Mass   55.93490
   Atom    2 Element C  Has Mass   12.00000
   Atom    3 Element C  Has Mass   12.00000
   Atom    4 Element C  Has Mass   12.00000
   Atom    5 Element C  Has Mass   12.00000
   Atom    6 Element C  Has Mass   12.00000
   Atom    7 Element O  Has Mass   15.99491
   Atom    8 Element O  Has Mass   15.99491
   Atom    9 Element O  Has Mass   15.99491
   Atom   10 Element O  Has Mass   15.99491
   Atom   11 Element O  Has Mass   15.99491
   Molecular Mass:   195.909450 amu
   Principal axes and moments of inertia in amu*Bohr^2:
                             1           2           3
    Eigenvalues --     1913.53889  2097.13216  2376.65178
          X              -0.62678     0.60254    -0.49406
          Y               0.73172     0.67309    -0.10740
          Z              -0.26783     0.42883     0.86277
   Rotational Symmetry Number is   1
   The Molecule is an Asymmetric Top
   Translational Enthalpy:        0.889 kcal/mol
   Rotational Enthalpy:           0.889 kcal/mol
   Vibrational Enthalpy:         29.146 kcal/mol
   gas constant (RT):             0.592 kcal/mol
   Translational Entropy:        41.722  cal/mol.K
   Rotational Entropy:           30.634  cal/mol.K
   Vibrational Entropy:          21.927  cal/mol.K

   Total Enthalpy:               31.516 kcal/mol
   Total Entropy:                94.283  cal/mol.K

 Total job time:  124.65s(wall), 246.24s(cpu)
        *  Thank you very much for using Q-Chem.  Have a nice day.  *
