 Q-Chem 5.4 (devel), Q-Chem, Inc., Pleasanton, CA (2021)
 Q-Chem 5.4.1 for Intel X86 EM64T Linux

User input:
--------------------------------------------------------------
$molecule
0   1
 Fe 1117.53531338 41.08697806 -60.29243739    -1  0   0   0   0
C 1114.09282314 42.00349809 -60.05488963    -2  0   0   0   0
C 1120.73853473 40.63595767 -61.73593889    -2  0   0   0   0
C 1118.40731151 44.36370015 -59.87196588    -2  0   0   0   0
C 1117.90188941 39.59039954 -57.21306013    -2  0   0   0   0
C 1116.73997663 38.75119417 -62.79475804    -2  0   0   0   0
O 1112.14911101 42.75977654 -60.42834380    -3  0   0   0   0
O 1122.51572637 40.11482449 -63.04774083    -3  0   0   0   0
O 1118.80133270 46.55800657 -59.62426456    -3  0   0   0   0
O 1118.17685945 38.65050629 -55.17362507    -3  0   0   0   0
O 1116.51395505 37.26793210 -64.43425410    -3  0   0   0   0
H 1114.02813196 66.23875973 -47.88244855      6     13    0    0    0
C 1112.56374946 66.13104949 -49.49142507     1     12    14    15    16
H 1112.23182994 68.11981221 -49.36695384     6     13    0    0    0
H 1113.33474001 65.47095171 -51.31013481     6     13    0    0    0
C 1109.89997501 64.69538629 -49.03555947     2     13    17    18    19
H 1108.70437261 65.54986641 -47.64907027     6     16    0    0    0
H 1108.76072182 64.74663383 -50.64357275     6     16    0    0    0
C 1110.30199037 61.80694280 -48.38901903     2     16    20   21   22
H 1111.24467836 60.74498230 -49.95247472     6     19    0    0    0
H 1111.85500126 61.78179588 -46.93852207     6     19    0    0    0
C 1107.96254245 60.35650244 -47.65616992     2     19   23   24   25
H 1107.03138213 61.52527890 -46.15656639     6    22    0    0    0
H 1106.71692589 60.27834942 -49.31588932     6    22    0    0    0
C 1108.65276201 57.88860595 -46.39321840     2    22   26   27   28
H 1109.84971321 56.74863553 -47.42981931     6    25    0    0    0
H 1109.86980904 58.09061010 -44.81754298     6    25    0    0    0
C 1106.30669018 56.39034845 -45.44989117     2    25   29   30   31
H 1105.09375413 57.77534734 -44.33806597     6    28    0    0    0
H 1105.21226178 55.83916880 -47.08913402     6    28    0    0    0
C 1106.98132109 54.01830103 -43.99375303     2    28   32   33   34
H 1108.71706338 53.18376266 -44.78642286     6    31    0    0    0
H 1107.49125114 54.65646166 -42.15424552     6    31    0    0    0
C 1104.87955602 52.18315522 -43.49347553     2    31   35   36   37
H 1103.36610648 53.19062070 -42.52401211     6    34    0    0    0
H 1103.98564200 51.34393390 -45.18406137     6    34    0    0    0
C 1105.44422375 49.99306111 -41.65722926     2    34   38   39   40
H 1107.02296949 48.69385605 -42.24375334     6    37    0    0    0
H 1105.90401353 50.61313612 -39.69813156     6    37    0    0    0
C 1103.03017429 48.49063962 -41.16075231     2    37   41   42   43
H 1101.71406834 49.64355064 -40.08076364     6    40    0    0    0
H 1102.25919154 48.09049789 -42.99729694     6    40    0    0    0
C 1103.37295132 45.88788835 -39.62434215     2    40   44   45   46
H 1104.16817444 44.37469764 -40.77797435     6    43    0    0    0
H 1104.46394261 46.12121346 -37.87019530     6    43    0    0    0
C 1100.87325336 44.81192089 -38.72986246     1    43   47   48   49
H 1099.91365274 46.28137111 -37.44773580     6    46    0    0    0
H 1101.37274304 43.18243444 -37.48877740     6    46    0    0    0
H 1099.57757778 44.01484323 -40.01679058     6    46    0    0    0
H 1109.82659769 36.64851838 -53.46515998     6     51    0    0    0
C 1110.83188201 38.38037470 -54.21104611     1     50    52    53    54
H 1112.89170554 37.91042435 -54.02947121     6     51    0    0    0
H 1110.66881208 38.64936249 -56.33949995     6     51    0    0    0
C 1110.08737518 40.83437084 -52.63655512     2     51    55    56    57
H 1111.21526383 42.33992977 -53.42656247     6     54    0    0    0
H 1108.28361496 41.52752975 -53.19615836     6     54    0    0    0
C 1110.38024500 40.42080874 -49.80821942     2     54    58   59   60
H 1112.27073105 39.63002203 -49.47630120     6     57    0    0    0
H 1110.38830342 42.18704361 -48.85718165     6     57    0    0    0
C 1108.24876752 38.79515515 -48.68132803     2     57   61   62   63
H 1106.50664796 39.43195672 -49.28089261     6    60    0    0    0
H 1108.26284490 36.83990255 -49.26244562     6    60    0    0    0
C 1108.24300061 38.82211392 -45.69355047     2    60   64   65   66
H 1110.19870477 38.68425862 -45.06497025     6    63    0    0    0
H 1107.58196855 40.67961630 -45.05174308     6    63    0    0    0
C 1106.68212552 36.77682906 -44.43626535     2    63   67   68   69
H 1106.53121198 37.17702986 -42.36383687     6    66    0    0    0
H 1104.68406440 36.81578004 -44.83973636     6    66    0    0    0
C 1107.61327889 33.98054576 -44.61194387     2    66   70   71   72
H 1108.24425560 33.69390444 -46.47533622     6    69    0    0    0
H 1109.32419461 33.94433726 -43.53339626     6    69    0    0    0
C 1105.68229017 32.05429870 -43.78625057     2    69   73   74   75
H 1105.28214752 32.42985911 -41.80936914     6    72    0    0    0
H 1103.97003894 32.18110275 -44.89895599     6    72    0    0    0
C 1106.35776535 29.20919390 -43.55152087     2    72   76   77   78
H 1107.34409308 28.37307074 -45.15800049     6    75    0    0    0
H 1107.57055855 28.82003194 -42.05666271     6    75    0    0    0
C 1103.86741032 27.62702554 -43.08699511     2    75   79   80   81
H 1102.75959698 28.47158132 -41.54787631     6    78    0    0    0
H 1102.68446318 27.97041478 -44.69710609     6    78    0    0    0
C 1104.21074751 24.71872272 -42.51396844     2    78   82   83   84
H 1106.03918727 24.34942499 -43.35350075     6    81    0    0    0
H 1104.22142130 24.50471523 -40.41334294     6    81    0    0    0
C 1102.05355631 22.97987076 -43.33436676     1    81   85   86   87
H 1102.58429622 21.04473893 -42.56275411     6    84    0    0    0
H 1102.32236605 22.79494303 -45.26151046     6    84    0    0    0
H 1100.10634983 23.50712879 -43.00805924     6    84    0    0    0
H 1126.75258684 64.17050087 -34.88882488     6     89    0    0    0
C 1126.65330192 62.54355806 -33.62200070     1     88    90    91    92
H 1127.96588969 61.11468088 -34.53202423     6     89    0    0    0
H 1127.49038513 62.96992157 -31.71182468     6     89    0    0    0
C 1124.02987113 61.28959042 -33.41347723     2     89    93    94    95
H 1122.75865087 62.59915985 -32.58404602     6     92    0    0    0
H 1123.16214099 60.99767078 -35.26167249     6     92    0    0    0
C 1124.07462760 58.64265655 -31.98485276     2     92    96   97   98
H 1125.32811289 57.19876991 -32.86088217     6     95    0    0    0
H 1124.96364311 58.92998351 -30.10073077     6     95    0    0    0
C 1121.49152370 57.53012738 -31.73214946     2     95   99   100   101
H 1120.30747561 58.90731800 -30.80207523     6    98    0    0    0
H 1120.80467925 57.49657680 -33.61655108     6    98    0    0    0
C 1121.28580744 54.93801402 -30.45602147     2    98   102   103   104
H 1122.32934512 53.66315046 -31.62778934     6    101    0    0    0
H 1122.15398599 54.86866660 -28.65734149     6    101    0    0    0
C 1118.57721054 53.94543129 -30.33915969     2    101   105   106   107
H 1117.34906920 55.16482126 -29.26853417     6    104    0    0    0
H 1117.79081914 53.71734969 -32.34907612     6    104    0    0    0
C 1118.29210089 51.42810272 -28.92121482     2    104   108   109   110
H 1119.49728436 49.85321127 -29.78077561     6    107    0    0    0
H 1118.78330663 51.65492242 -26.90430548     6    107    0    0    0
C 1115.60142329 50.59517575 -29.41906491     2    107   111   112   113
H 1114.49843769 52.13620204 -28.94237868     6    110    0    0    0
H 1115.44028730 49.98104405 -31.44234539     6    110    0    0    0
C 1115.05086811 48.13917576 -27.93574888     2    110   114   115   116
H 1116.40383920 46.62722320 -28.46330244     6    113    0    0    0
H 1115.14150238 48.43702246 -25.87138019     6    113    0    0    0
C 1112.16482417 47.63956168 -28.61448557     2    113   117   118   119
H 1111.21208192 49.44738134 -28.08007188     6    116    0    0    0
H 1111.73965292 47.58272810 -30.61404804     6    116    0    0    0
C 1111.04894550 45.39488329 -27.06507280     2    116   120   121   122
H 1109.76464457 44.36377076 -28.36130493     6    119    0    0    0
H 1112.48084655 43.99664657 -26.50959981     6    119    0    0    0
C 1109.73481222 46.06583500 -24.50888451     1    119   123   124   125
H 1108.70265660 44.61503969 -23.69165759     6    122    0    0    0
H 1108.52991528 47.70735034 -24.84633682     6    122    0    0    0
H 1111.15150435 47.01452419 -23.31384064     6    122    0    0    0
H 1142.63015259 44.81331196 -41.35725484     6     127    0    0    0
C 1140.71952340 45.37990294 -41.96766602     1     126    128    129    130
H 1139.31564131 44.02606439 -41.37029515     6     127    0    0    0
H 1139.98151328 47.05119404 -41.03742817     6     127    0    0    0
C 1140.96436419 45.91934363 -44.72779720     2     127    131    132    133
H 1142.41633634 47.29750606 -45.06848260     6     130    0    0    0
H 1141.46989255 44.20322070 -45.83727060     6     130    0    0    0
C 1138.27684246 46.89996078 -45.87230247     2     130    134   135   136
H 1136.73662860 45.38770598 -45.85773290     6     133    0    0    0
H 1137.69963168 48.47262998 -44.67011848     6     133    0    0    0
C 1138.71867021 48.00470433 -48.49676801     2     133   137   138   139
H 1139.83860131 49.66373875 -48.24671732     6    136    0    0    0
H 1139.86177274 46.78838255 -49.71074507     6    136    0    0    0
C 1136.29787367 48.63713624 -49.96577188     2    136   140   141   142
H 1134.94555201 46.97232493 -50.15230727     6    139    0    0    0
H 1135.25750578 50.01222555 -48.95587493     6    139    0    0    0
C 1136.40480565 49.78141381 -52.54527130     2    139   143   144   145
H 1137.55956237 51.57845361 -52.61522852     6    142    0    0    0
H 1137.28265348 48.38476070 -53.77301568     6    142    0    0    0
C 1133.78306935 50.33797635 -53.64177668     2    142   146   147   148
H 1132.39768774 48.82216526 -53.36668277     6    145    0    0    0
H 1133.06671369 52.04796515 -52.67233446     6    145    0    0    0
C 1133.83527214 51.15063072 -56.36225520     2    145   149   150   151
H 1135.31447474 52.51583119 -56.64841327     6    148    0    0    0
H 1134.36536541 49.49345389 -57.55644706     6    148    0    0    0
C 1131.28258501 52.16859305 -57.36562255     2    148   152   153   154
H 1129.86594836 50.78002887 -56.74683657     6    151    0    0    0
H 1130.80712608 53.85178741 -56.43488639     6    151    0    0    0
C 1131.30208974 52.67501882 -60.23616664     2    151   155   156   157
H 1129.61191092 53.60773719 -60.98875012     6    154    0    0    0
H 1132.88114916 53.80892758 -60.61700949     6    154    0    0    0
C 1131.55290768 50.27982494 -61.90290803     2    154   158   159   160
H 1133.37357487 49.30789648 -61.39341436     6    157    0    0    0
H 1129.88689316 49.07850766 -61.52813120     6    157    0    0    0
C 1131.59051629 50.72260358 -64.72547622     1    157   161   162   163
H 1131.34377154 48.88462747 -65.84666297     6    160    0    0    0
H 1133.43384934 51.70336380 -65.34885168     6    160    0    0    0
H 1129.84195914 51.58339151 -65.29121397     6    160    0    0    0
H 1131.19619207 33.54087501 -23.39567605     6     165    0    0    0
C 1133.18394118 32.88135067 -23.61466345     1     164    166    167    168
H 1134.30330184 33.97498901 -22.21423342     6     165    0    0    0
H 1133.59277674 30.97525192 -23.23456164     6     165    0    0    0
C 1134.52279419 33.59627955 -25.96855403     2     165    169    170    171
H 1133.38241041 32.88714466 -27.56397719     6     168    0    0    0
H 1134.40762328 35.59979931 -26.44302318     6     168    0    0    0
C 1137.37092978 32.79908183 -26.13180468     2     168    172   173   174
H 1138.60397324 34.09832929 -24.91385819     6     171    0    0    0
H 1137.64849230 30.93786537 -25.29676371     6     171    0    0    0
C 1138.41194400 32.95475226 -28.89097770     2     171   175   176   177
H 1137.36434204 31.33682181 -29.99311374     6    174    0    0    0
H 1137.99518661 34.59738236 -29.84007677     6    174    0    0    0
C 1141.17105968 32.44269614 -29.15347652     2    174   178   179   180
H 1142.19191402 33.72380786 -27.97580645     6    177    0    0    0
H 1141.72085189 30.58938739 -28.58871851     6    177    0    0    0
C 1142.03362637 32.78458280 -31.80040919     2    177   181   182   183
H 1141.35541741 31.24620766 -33.02395811     6    180    0    0    0
H 1140.97275401 34.32041782 -32.45871610     6    180    0    0    0
C 1144.89153053 32.71843295 -32.35593807     2    180   184   185   186
H 1145.74198893 34.36596449 -31.49981976     6    183    0    0    0
H 1145.55351309 31.07634250 -31.23708465     6    183    0    0    0
C 1145.64388195 32.88845126 -35.18719649     2    183   187   188   189
H 1144.74636670 31.22103742 -36.12834881     6    186    0    0    0
H 1145.22501020 34.65192101 -36.02180491     6    186    0    0    0
C 1148.51272691 32.78869099 -35.80105711     2    186   190   191   192
H 1149.14996635 34.46777578 -34.94055118     6    189    0    0    0
H 1149.41214061 31.35306045 -34.67877711     6    189    0    0    0
C 1149.32931180 32.72123996 -38.61557169     2    189   193   194   195
H 1148.66201033 31.09620753 -39.56184055     6    192    0    0    0
H 1148.79929040 34.44581220 -39.64258737     6    192    0    0    0
C 1152.15849150 32.84530592 -38.89456342     2    192   196   197   198
H 1153.00317606 34.53226361 -38.03619234     6    195    0    0    0
H 1153.10586713 31.21606180 -38.07055209     6    195    0    0    0
C 1152.82095189 32.93702548 -41.66662491     1    195   199   200   201
H 1154.95219791 32.81750250 -42.20757845     6    198    0    0    0
H 1152.48133253 34.79422058 -42.44316945     6    198    0    0    0
H 1151.58895466 31.76891921 -42.90663776     6    198    0    0    0
H 1131.17517396 27.97521522 -38.24846497     6     203    0    0    0
C 1133.07405541 28.24112882 -37.30454262     1     202    204    205    206
H 1134.41496631 27.89673750 -38.77686976     6     203    0    0    0
H 1133.30191315 30.30011502 -36.99050584     6     203    0    0    0
C 1134.02951059 26.62114940 -35.12625026     2     203    207    208    209
H 1136.01999001 26.92746851 -34.67147770     6     206    0    0    0
H 1133.05843031 26.95111839 -33.32356671     6     206    0    0    0
C 1134.06234249 23.83667375 -35.59975727     2     206    210   211   212
H 1134.15974861 22.82540874 -33.81369956     6     209    0    0    0
H 1132.14932985 23.37449196 -36.38178791     6     209    0    0    0
C 1135.80225746 22.69578893 -37.55432211     2     209   213   214   215
H 1135.70172577 23.76794545 -39.33433046     6    212    0    0    0
H 1137.72467165 22.89666802 -36.77548782     6    212    0    0    0
C 1135.40218009 19.73229129 -38.14798788     2    212   216   217   218
H 1136.37166507 18.58587605 -36.75049548     6    215    0    0    0
H 1133.43509909 19.65488044 -38.10405835     6    215    0    0    0
C 1136.19987514 19.31036233 -40.88105756     2    215   219   220   221
H 1135.39503262 20.81212078 -41.98664475     6    218    0    0    0
H 1138.28615393 19.19840646 -40.94710495     6    218    0    0    0
C 1135.22432111 16.68520726 -41.67218545     2    218   222   223   224
H 1135.98457739 15.32958541 -40.29674466     6    221    0    0    0
H 1133.18994718 16.60960394 -41.38699500     6    221    0    0    0
C 1135.73499784 16.07816539 -44.42044528     2    221   225   226   227
H 1134.75131201 17.43576383 -45.62560899     6    224    0    0    0
H 1137.79625510 16.08997323 -44.73694109     6    224    0    0    0
C 1134.66737394 13.49612648 -45.09505200     2    224   228   229   230
H 1135.82293463 11.96005257 -44.55654544     6    227    0    0    0
H 1132.79731903 13.25180165 -44.40096887     6    227    0    0    0
C 1134.48216599 13.51653831 -48.00411868     2    227   231   232   233
H 1133.35242140 15.12956627 -48.58826797     6    230    0    0    0
H 1136.27239560 14.10808850 -48.75010958     6    230    0    0    0
C 1133.75745544 10.91137003 -49.18220664     2    230   234   235   236
H 1134.86954348 9.34060356 -48.49729708     6    233    0    0    0
H 1131.80685653 10.30186814 -48.70931904     6    233    0    0    0
C 1134.21316198 11.02819312 -52.01245607     1    233   237   238   239
H 1136.12263243 11.44445899 -52.55108141     6    236    0    0    0
H 1133.08962894 12.41456479 -53.14968644     6    236    0    0    0
H 1133.76975863 9.19504109 -52.98661721     6    236    0    0    0
H 1109.45112785 26.36534663 -35.07341331     6     241    0    0    0
C 1109.26079050 27.45138682 -36.76721377     1     240    242    243    244
H 1111.13813851 28.10676105 -37.01005026     6     241    0    0    0
H 1108.86513148 26.10226723 -38.36578609     6     241    0    0    0
C 1107.32630436 29.51635095 -36.30266295     2     241    245    246    247
H 1107.98672719 30.52300912 -34.59914179     6     244    0    0    0
H 1107.32909169 31.07922157 -37.66230223     6     244    0    0    0
C 1104.68319079 28.53370973 -35.96192341     2     244    248   249   250
H 1104.08846556 27.37786178 -37.59711423     6     247    0    0    0
H 1104.67260245 27.44686254 -34.31680179     6     247    0    0    0
C 1102.74918013 30.75194364 -35.45408175     2     247   251   252   253
H 1103.78265526 32.16640426 -34.33227832     6    250    0    0    0
H 1102.53850010 31.96084839 -36.94321446     6    250    0    0    0
C 1100.57358939 29.89192232 -33.87526724     2    250   254   255   256
H 1101.09197776 29.13236900 -31.91971880     6    253    0    0    0
H 1099.70549182 31.67338406 -33.36670309     6    253    0    0    0
C 1098.60360720 28.47714247 -35.46919853     2    253   257   258   259
H 1096.79616467 29.37955193 -35.06527045     6    256    0    0    0
H 1098.81565604 28.95238367 -37.49843204     6    256    0    0    0
C 1098.78350498 25.60978283 -35.09870636     2    256   260   261   262
H 1100.81034446 25.13403176 -35.06016506     6    259    0    0    0
H 1098.11492099 25.26132397 -33.15861817     6    259    0    0    0
C 1097.50682812 24.17257580 -37.31604650     2    259   263   264   265
H 1095.44655103 24.78137600 -37.34918637     6    262    0    0    0
H 1098.36819638 24.66038269 -39.19004852     6    262    0    0    0
C 1097.83351370 21.28610969 -37.28061837     2    262   266   267   268
H 1099.64470544 20.70553688 -36.70937242     6    265    0    0    0
H 1096.76625759 20.84188150 -35.49321546     6    265    0    0    0
C 1096.76433195 19.82029590 -39.63285367     2    265   269   270   271
H 1094.79068865 20.20783853 -39.75293043     6    268    0    0    0
H 1097.50171329 20.61369650 -41.39233527     6    268    0    0    0
C 1097.26800455 16.96575303 -39.52795500     2    268   272   273   274
H 1096.97058352 16.00917763 -41.29462255     6    271    0    0    0
H 1099.23524844 16.62957104 -38.90328378     6    271    0    0    0
C 1095.87167102 15.47595756 -37.38923330     1    271   275   276   277
H 1096.20787822 16.22700832 -35.57789963     6    274    0    0    0
H 1096.39736413 13.55573458 -37.30137347     6    274    0    0    0
H 1093.86532551 15.61155677 -37.48986700     6    274    0    0    0
H 1129.20596317 45.11992921 -31.42858442     6     279    0    0    0
C 1128.38022619 43.64152245 -30.21225822     1     278    280    281    282
H 1128.72511307 44.30793808 -28.24438054     6     279    0    0    0
H 1126.37928859 43.76221457 -30.47070708     6     279    0    0    0
C 1129.63430667 41.08792113 -30.98159329     2     279    283    284    285
H 1129.91064823 41.47425023 -33.03936737     6     282    0    0    0
H 1131.55595237 40.77253931 -30.09467145     6     282    0    0    0
C 1127.85480354 38.95622221 -30.33626399     2     282    286   287   288
H 1127.99845002 38.74733249 -28.36705412     6     285    0    0    0
H 1125.87624367 39.42175809 -30.64955848     6     285    0    0    0
C 1128.53211666 36.56274447 -31.80732745     2     285   289   290   291
H 1128.90634427 37.19270663 -33.67553242     6    288    0    0    0
H 1130.28647512 35.67787954 -31.08619094     6    288    0    0    0
C 1126.28815011 34.66891997 -31.59094937     2    288   292   293   294
H 1125.90191032 34.46630748 -29.50624867     6    291    0    0    0
H 1124.55033437 35.47453243 -32.43741585     6    291    0    0    0
C 1126.92584591 32.10175154 -32.81744374     2    291   295   296   297
H 1126.93289912 32.30452907 -34.83458930     6    294    0    0    0
H 1128.77868115 31.50231996 -32.07507415     6    294    0    0    0
C 1125.02741983 30.02484628 -31.78127369     2    294   298   299   300

   17   -1830.5062818720      7.11E-09 Convergence criterion met
 Total energy in the final basis set = -1828.27610608
 Total job time:  15.09s(wall), 26.96s(cpu)
        *  Thank you very much for using Q-Chem.  Have a nice day.  *

User input: 2 of 2

                  Welcome to Q-Chem
     A Quantum Leap Into The Future Of Chemistry

 Q-Chem 5.4 (devel), Q-Chem, Inc., Pleasanton, CA (2021)

 E. Epifanovsky,  A. T. B. Gilbert,  Xintian Feng,  Joonho Lee,  Yuezhi Mao,
 N. Mardirossian,  P. Pokhilko,  A. White,  M. Wormit,  M. P. Coons,
 A. L. Dempwolff,  Zhengting Gan,  D. Hait,  P. R. Horn,  L. D. Jacobson,
 I. Kaliman,  J. Kussmann,  A. W. Lange,  Ka Un Lao,  D. S. Levine,  Jie Liu,
 S. C. McKenzie,  A. F. Morrison,  K. Nanda,  F. Plasser,  D. R. Rehn,
 M. L. Vidal,  Zhi-Qiang You,  Ying Zhu,  B. Alam,  B. Albrecht,
 A. Aldossary,  E. Alguire,  J. H. Andersen,  D. Barton,  K. Begam,  A. Behn,
 Y. A. Bernard,  E. J. Berquist,  H. Burton,  A. Carreras,  K. Carter-Fenk,
 R. Chakraborty,  A. D. Chien,  K. D. Closser,  V. Cofer-Shabica,
 S. Dasgupta,  Jia Deng,  M. de Wergifosse,  M. Diedenhofen,  Hainam Do,
 S. Ehlert,  Po-Tung Fang,  S. Fatehi,  Qingguo Feng,  T. Friedhoff,
 J. Gayvert,  Qinghui Ge,  G. Gidofalvi,  M. Goldey,  J. Gomes,
 C. Gonzalez-Espinoza,  S. Gulania,  A. Gunina,  M. W. D. Hanson-Heine,
 P. H. P. Harbach,  A. W. Hauser,  M. F. Herbst,  M. Hernandez Vera,
 M. Hodecker,  Z. C. Holden,  S. Houck,  Xunkun Huang,  Kerwin Hui,
 B. C. Huynh,  M. Ivanov,  Hyunjun Ji,  Hanjie Jiang,  B. Kaduk,  S. Kaehler,
 K. Khistyaev,  Jaehoon Kim,  P. Klunzinger,  Z. Koczor-Benda,
 Joong Hoon Koh,  D. Kosenkov,  L. Koulias,  T. Kowalczyk,  C. M. Krauter,
 K. Kue,  A. Kunitsa,  T. Kus,  A. Landau,  K. V. Lawler,  D. Lefrancois,
 S. Lehtola,  Rain Li,  Yi-Pei Li,  Jiashu Liang,  M. Liebenthal,
 Hung-Hsuan Lin,  You-Sheng Lin,  Fenglai Liu,  Kuan-Yu Liu,
 M. Loipersberger,  A. Luenser,  A. Manjanath,  P. Manohar,  E. Mansoor,
 S. F. Manzer,  Shan-Ping Mao,  A. V. Marenich,  T. Markovich,  S. Mason,
 S. A. Maurer,  P. F. McLaughlin,  M. F. S. J. Menger,  J.-M. Mewes,
 S. A. Mewes,  P. Morgante,  J. W. Mullinax,  K. J. Oosterbaan,  G. Paran,
 Alexander C. Paul,  Suranjan K. Paul,  F. Pavosevic,  Zheng Pei,  S. Prager,
 E. I. Proynov,  E. Ramos,  B. Rana,  A. E. Rask,  A. Rettig,  R. M. Richard,
 F. Rob,  E. Rossomme,  T. Scheele,  M. Scheurer,  M. Schneider,
 N. Sergueev,  S. M. Sharada,  W. Skomorowski,  D. W. Small,  C. J. Stein,
 Yu-Chuan Su,  E. J. Sundstrom,  Zhen Tao,  J. Thirman,  T. Tsuchimochi,
 N. M. Tubman,  S. P. Veccham,  O. Vydrov,  J. Wenzel,  J. Witte,  A. Yamada,
 Kun Yao,  S. Yeganeh,  S. R. Yost,  A. Zech,  Igor Ying Zhang,  Xing Zhang,
 Yu Zhang,  D. Zuev,  A. Aspuru-Guzik,  A. T. Bell,  N. A. Besley,
 K. B. Bravaya,  B. R. Brooks,  D. Casanova,  Jeng-Da Chai,  S. Coriani,
 C. J. Cramer,  A. E. DePrince, III,  R. A. DiStasio Jr.,  A. Dreuw,
 B. D. Dunietz,  T. R. Furlani,  W. A. Goddard III,  S. Grimme,
 S. Hammes-Schiffer,  T. Head-Gordon,  W. J. Hehre,  Chao-Ping Hsu,
 T.-C. Jagau,  Yousung Jung,  A. Klamt,  Jing Kong,  D. S. Lambrecht,
 WanZhen Liang,  N. J. Mayhall,  C. W. McCurdy,  J. B. Neaton,
 C. Ochsenfeld,  J. A. Parkhill,  R. Peverati,  V. A. Rassolov,  Yihan Shao,
 L. V. Slipchenko,  T. Stauch,  R. P. Steele,  J. E. Subotnik,
 A. J. W. Thom,  A. Tkatchenko,  D. G. Truhlar,  T. Van Voorhis,
 T. A. Wesolowski,  K. B. Whaley,  H. L. Woodcock III,  P. M. Zimmerman,
 S. Faraji,  P. M. W. Gill,  M. Head-Gordon,  J. M. Herbert,  A. I. Krylov

 Additional authors for Version 5.4.1:
 S. Kotaru,  Shaozhi Li,  Xiangyuan Li,  F. Matz,  A. Molle,  Haisheng Ren,
 Yingli Su,  Hung-Yi Tsai,  C. Utku,  Fang Wang

 Contributors to earlier versions of Q-Chem not listed above:
 R. D. Adamson,  B. Austin,  R. Baer,  J. Baker,  G. J. O. Beran,
 K. Brandhorst,  S. T. Brown,  E. F. C. Byrd,  A. K. Chakraborty,
 G. K. L. Chan,  Chun-Min Chang,  Yunqing Chen,  C.-L. Cheng,
 Siu Hung Chien,  D. M. Chipman,  D. L. Crittenden,  H. Dachsel,
 R. J. Doerksen,  A. D. Dutoi,  R. G. Edgar,  J. Fosso-Tande,
 L. Fusti-Molnar,  D. Ghosh,  A. Ghysels,  A. Golubeva-Zadorozhnaya,
 J. Gonthier,  M. S. Gordon,  S. R. Gwaltney,  G. Hawkins,  J. E. Herr,
 A. Heyden,  S. Hirata,  E. G. Hohenstein,  G. Kedziora,  F. J. Keil,
 C. Kelley,  Jihan Kim,  R. A. King,  R. Z. Khaliullin,  P. P. Korambath,
 W. Kurlancheek,  A. Laurent,  A. M. Lee,  M. S. Lee,  S. V. Levchenko,
 Ching Yeh Lin,  D. Liotard,  E. Livshits,  R. C. Lochan,  I. Lotan,
 L. A. Martinez-Martinez,  P. E. Maslen,  N. Nair,  D. P. O'Neill,
 D. Neuhauser,  E. Neuscamman,  C. M. Oana,  R. Olivares-Amaya,  R. Olson,
 T. M. Perrine,  B. Peters,  P. A. Pieniazek,  A. Prociuk,  Y. M. Rhee,
 J. Ritchie,  M. A. Rohrdanz,  E. Rosta,  N. J. Russ,  H. F. Schaefer III,
 M. W. Schmidt,  N. E. Schultz,  S. Sharma,  N. Shenvi,  C. D. Sherrill,
 A. C. Simmonett,  A. Sodt,  T. Stein,  D. Stuck,  K. S. Thanthiriwatte,
 V. Vanovschi,  L. Vogt,  Tao Wang,  A. Warshel,  M. A. Watson,
 C. F. Williams,  Q. Wu,  X. Xu,  Jun Yang,  W. Zhang,  Yan Zhao

 Please cite Q-Chem as follows:
 Y. Shao et al., Mol. Phys. 113, 184-215 (2015)
 DOI: 10.1080/00268976.2014.952696

 Q-Chem 5.4.1 for Intel X86 EM64T Linux

 Parts of Q-Chem use Armadillo 9.900.5 (Nocturnal Misbehaviour).
 http://arma.sourceforge.net/

 Q-Chem begins on Wed Jun 22 08:05:40 2022

 Host: p09r16n04.grace.hpc.yale.internal
0

     Scratch files written to /home/tl686/scratch60/qchem_dev/scratch/qchem69402//
 Processing $rem in /home/tl686/qchem_dev/qchem/config/preferences:
 Processing $rem in /home/tl686/.qchemrc:
Applying user defined connections for MM calculations
The previous job contains 0 fragments, simply inherited here

 Checking the input file for inconsistencies... 	...done.

--------------------------------------------------------------
User input:
--------------------------------------------------------------

$molecule
READ
$end

$qm_atoms
1:11
$end

$force_field_params
NumAtomTypes 3
AtomType -1   0.0238     3.11   0.2868
AtomType -2   0.07124    3.30   0.6597
AtomType -3  -0.0760     3.09   0.1434
$end

$rem
     JOBTYPE  freq
     METHOD   bp86
     BASIS    def2-msvp
     MAX_SCF_CYCLES   800
     INPUT_BOHR TRUE
     SYM_IGNORE TRUE
     SCF_GUESS     read
     user_connect            true
     qm_mm_interface         ONIOM
     force_field             oplsaa
$end

--------------------------------------------------------------

    4   -1830.5062818719      1.02E-09 Convergence criterion met
 Total energy in the final basis set = -1828.27610608

                    Orbital Energies (a.u.)
 --------------------------------------------------------------

 Alpha MOs
 -- Occupied --
******** -29.6368 -25.5958 -25.5882 -25.5776 -18.8996 -18.8883 -18.8810
-18.8742 -18.8699 -10.0645 -10.0572 -10.0492 -10.0453 -10.0392  -3.3184
 -2.1502  -2.1377  -2.1157  -1.0942  -1.0466  -1.0397  -1.0344  -1.0235
 -0.5698  -0.5315  -0.5204  -0.5153  -0.5122  -0.4562  -0.4548  -0.4489
 -0.4381  -0.4281  -0.4198  -0.4179  -0.4123  -0.4047  -0.4045  -0.4001
 -0.3969  -0.3956  -0.3863  -0.3816  -0.2761  -0.2584  -0.2412  -0.2124

          Ground-State Mulliken Net Atomic Charges

     Atom                 Charge (a.u.)
  ----------------------------------------
      1 Fe                   -0.480177
      2 C                     0.201734
      3 C                     0.217841
      4 C                     0.207009
      5 C                     0.246270
      6 C                     0.199746
      7 O                    -0.056883
      8 O                    -0.133539
      9 O                    -0.137451
     10 O                    -0.145598
     11 O                    -0.118952
  ----------------------------------------
  Sum of atomic charges =     0.000000

                    Cartesian Multipole Moments
 -----------------------------------------------------------------
    Charge (ESU x 10^10)
                -0.0000
    Dipole Moment (Debye)
         X      -0.6861193639      Y       0.1173425234      Z      -0.0065146476
       Tot       0.6961116936
    Quadrupole Moments (Debye-Ang)
        XX    -878.3956     XY      54.5756     YY     -66.0289
        XZ      17.8334     YZ      -3.8354     ZZ     -71.0226

 Frequency:      -197.09                -192.77                  63.75
 Force Cnst:      0.3632                 0.3524                 0.0353
 Red. Mass:      15.8688                16.0961                14.7246
 IR Intens:        0.000                  0.000                  0.000
 Frequency:       127.73                 143.19                 157.77
 Force Cnst:      0.1480                 0.1937                 0.2383
 Red. Mass:      15.3998                16.0331                16.2496
 IR Intens:        0.000                  0.000                  0.000
 Frequency:       167.94                 280.29                 321.49
 Force Cnst:      0.2748                 0.6182                 0.7853
 Red. Mass:      16.5368                13.3563                12.8964
 IR Intens:        0.000                  0.000                  0.000
 Frequency:       361.37                 387.09                 409.12
 Force Cnst:      1.0812                 1.3396                 1.7756
 Red. Mass:      14.0520                15.1747                18.0048
 IR Intens:        0.000                  0.000                  0.000
 Frequency:       437.64                 454.85                 466.79
 Force Cnst:      1.4350                 1.6096                 1.9597
 Red. Mass:      12.7169                13.2048                15.2649
 IR Intens:        0.000                  0.000                  0.000
 Frequency:       482.95                 531.73                 553.81
 Force Cnst:      2.1255                 2.3776                 2.3860
 Red. Mass:      15.4665                14.2727                13.2038
 IR Intens:        0.000                  0.000                  0.000
 Frequency:       562.65                 618.36                 635.59
 Force Cnst:      2.4070                 3.2956                 3.4726
 Red. Mass:      12.9044                14.6286                14.5899
 IR Intens:        0.000                  0.000                  0.000
 Frequency:       666.66                1754.67                1800.01
 Force Cnst:      4.0264                24.2380                25.4282
 Red. Mass:      15.3766                13.3615                13.3204
 IR Intens:        0.000                  0.000                  0.000
 Frequency:      1872.86                1945.18                2332.14
 Force Cnst:     27.5580                29.7228                42.9337
 Red. Mass:      13.3348                13.3328                13.3979
 IR Intens:        0.000                  0.000                  0.000

 STANDARD THERMODYNAMIC QUANTITIES AT   298.15 K  AND     1.00 ATM

   This Molecule has  2 Imaginary Frequencies
   Zero point vibrational energy:       25.068 kcal/mol

   Atom    1 Element Fe Has Mass   55.93490
   Atom    2 Element C  Has Mass   12.00000
   Atom    3 Element C  Has Mass   12.00000
   Atom    4 Element C  Has Mass   12.00000
   Atom    5 Element C  Has Mass   12.00000
   Atom    6 Element C  Has Mass   12.00000
   Atom    7 Element O  Has Mass   15.99491
   Atom    8 Element O  Has Mass   15.99491
   Atom    9 Element O  Has Mass   15.99491
   Atom   10 Element O  Has Mass   15.99491
   Atom   11 Element O  Has Mass   15.99491
   Molecular Mass:   195.909450 amu
   Principal axes and moments of inertia in amu*Bohr^2:
                             1           2           3
    Eigenvalues --     1973.92531  2227.32491  2458.54914
          X               0.60167     0.79472     0.08012
          Y              -0.59058     0.51016    -0.62526
          Z              -0.53778     0.32888     0.77629
   Rotational Symmetry Number is   1
   The Molecule is an Asymmetric Top
   Translational Enthalpy:        0.889 kcal/mol
   Rotational Enthalpy:           0.889 kcal/mol
   Vibrational Enthalpy:         29.595 kcal/mol
   gas constant (RT):             0.592 kcal/mol
   Translational Entropy:        41.722  cal/mol.K
   Rotational Entropy:           30.758  cal/mol.K
   Vibrational Entropy:          26.878  cal/mol.K

   Total Enthalpy:               31.965 kcal/mol
   Total Entropy:                99.359  cal/mol.K

 Total job time:  120.92s(wall), 238.83s(cpu)
        *  Thank you very much for using Q-Chem.  Have a nice day.  *
