 Q-Chem 5.4 (devel), Q-Chem, Inc., Pleasanton, CA (2021)
 Q-Chem 5.4.1 for Intel X86 EM64T Linux

User input:
--------------------------------------------------------------
$molecule
0   1
 Fe 1478.37838386 -16.66749000 1.43592295    -1  0   0   0   0
C 1475.30857781 -17.24721362 2.92438982    -2  0   0   0   0
C 1478.28712817 -13.93743249 -0.85144284    -2  0   0   0   0
C 1481.66475377 -17.80413027 1.59310899    -2  0   0   0   0
C 1477.47213091 -19.40348802 -0.51163312    -2  0   0   0   0
C 1479.19355740 -14.84557761 4.06110756    -2  0   0   0   0
O 1473.55308309 -17.54958372 4.25995219    -3  0   0   0   0
O 1478.34655090 -12.14139676 -2.08793199    -3  0   0   0   0
O 1483.72706675 -18.45760357 1.70040646    -3  0   0   0   0
O 1477.41362723 -21.53109593 -1.21058532    -3  0   0   0   0
O 1479.86112355 -13.97867415 5.98605704    -3  0   0   0   0
H 1459.33718396 -42.66462749 19.80700005      6     13    0    0    0
C 1460.52622063 -40.89823368 19.43108023     1     12    14    15    16
H 1459.20409224 -39.29802514 19.58265356     6     13    0    0    0
H 1461.67652862 -40.44511237 21.02657274     6     13    0    0    0
C 1462.02107945 -41.09585825 16.86793335     2     13    17    18    19
H 1460.81458928 -41.77887142 15.50111456     6     16    0    0    0
H 1462.60347972 -39.07949129 16.40672528     6     16    0    0    0
C 1464.40508585 -42.63383740 16.83310799     2     16    20   21   22
H 1465.82931072 -42.23905769 18.17881602     6     19    0    0    0
H 1463.85879091 -44.59029144 17.28269118     6     19    0    0    0
C 1465.63031693 -42.68829772 14.12762914     2     19   23   24   25
H 1464.36572143 -43.97383394 12.86437574     6    22    0    0    0
H 1465.85254767 -40.85498833 13.18980970     6    22    0    0    0
C 1468.27012519 -43.90495485 13.79107647     2    22   26   27   28
H 1469.71293636 -42.53138431 14.48645013     6    25    0    0    0
H 1468.21876056 -45.62822926 14.89274221     6    25    0    0    0
C 1468.96231539 -44.49608803 11.07594724     2    25   29   30   31
H 1470.13376303 -46.15592616 11.36255374     6    28    0    0    0
H 1467.29151555 -45.19657099 9.95287675     6    28    0    0    0
C 1470.48036235 -42.31102214 9.71501870     2    28   32   33   34
H 1469.80780925 -40.30282674 10.23916883     6    31    0    0    0
H 1472.53414129 -42.38885741 10.21170040     6    31    0    0    0
C 1470.14412493 -42.55138490 6.91420982     2    31   35   36   37
H 1470.61825371 -44.43032481 6.11744624     6    34    0    0    0
H 1468.14259307 -42.02324577 6.66757470     6    34    0    0    0
C 1471.53083652 -40.54733264 5.35393790     2    34   38   39   40
H 1471.31131982 -38.63680683 6.14104636     6    37    0    0    0
H 1473.62567248 -40.70738106 5.35340336     6    37    0    0    0
C 1470.83307863 -40.67760777 2.52821760     2    37   41   42   43
H 1470.83986556 -42.67558894 1.91853008     6    40    0    0    0
H 1468.92712918 -40.00284392 2.48064305     6    40    0    0    0
C 1472.45648274 -39.03155724 0.88558909     2    40   44   45   46
H 1472.21307928 -37.09111549 1.51400528     6    43    0    0    0
H 1474.46007844 -39.25391344 1.03304357     6    43    0    0    0
C 1471.76269248 -39.20055090 -1.84051133     1    43   47   48   49
H 1471.46278708 -41.03519607 -2.28190435     6    46    0    0    0
H 1472.95491074 -38.16206799 -3.20528974     6    46    0    0    0
H 1469.87291607 -38.32497250 -2.07977566     6    46    0    0    0
H 1470.16796920 -23.58246097 -2.62972751     6     51    0    0    0
C 1471.33150239 -22.64368194 -1.32623255     1     50    52    53    54
H 1473.04740489 -22.48829124 -2.37940789     6     51    0    0    0
H 1470.92919701 -20.68904576 -1.00416067     6     51    0    0    0
C 1472.07209984 -24.27655414 1.09432500     2     51    55    56    57
H 1473.00097062 -22.89010789 2.22984043     6     54    0    0    0
H 1470.38525210 -25.06744693 2.02049106     6     54    0    0    0
C 1474.05921650 -26.47970202 0.90333689     2     54    58   59   60
H 1475.78190133 -25.48445464 0.60552162     6     57    0    0    0
H 1474.55051002 -27.51884871 2.60813514     6     57    0    0    0
C 1473.50259898 -28.27075216 -1.30327817     2     57   61   62   63
H 1471.90195915 -29.36186359 -1.03646711     6    60    0    0    0
H 1473.24368643 -27.15539263 -2.99441757     6    60    0    0    0
C 1475.43590295 -30.40538387 -1.36426420     2    60   64   65   66
H 1477.44423308 -29.60445292 -1.48035202     6    63    0    0    0
H 1475.01052623 -31.58809585 0.34108972     6    63    0    0    0
C 1474.88105560 -32.26345421 -3.62613688     2    63   67   68   69
H 1476.03489194 -33.94167525 -3.41950099     6    66    0    0    0
H 1472.90791002 -32.89884268 -3.53284188     6    66    0    0    0
C 1475.39112904 -31.31464348 -6.33734796     2    66   70   71   72
H 1474.39598799 -29.48047482 -6.59672653     6    69    0    0    0
H 1477.42951357 -30.82866276 -6.34019396     6    69    0    0    0
C 1474.23233505 -33.07357807 -8.33759663     2    69   73   74   75
H 1475.21045661 -34.87519557 -8.32433094     6    72    0    0    0
H 1472.25319763 -33.84753944 -7.82167700     6    72    0    0    0
C 1474.05707830 -31.79931937 -10.97840367     2    72   76   77   78
H 1472.91489384 -30.07588639 -10.80143784     6    75    0    0    0
H 1476.03487623 -31.33662701 -11.47352245     6    75    0    0    0
C 1472.80255792 -33.60319881 -12.93077584     2    75   79   80   81
H 1473.78219707 -35.40464816 -13.18171123     6    78    0    0    0
H 1471.06975138 -34.35460004 -12.28202666     6    78    0    0    0
C 1472.20224570 -31.85379967 -15.39240686     2    78   82   83   84
H 1470.63031424 -30.44128166 -15.00406788     6    81    0    0    0
H 1473.94897254 -30.72902910 -15.73106037     6    81    0    0    0
C 1471.82879847 -33.53490720 -17.76002298     1    81   85   86   87
H 1471.88216082 -32.36391905 -19.55255160     6    84    0    0    0
H 1470.05028502 -34.49881270 -17.61208418     6    84    0    0    0
H 1473.38326250 -34.82741453 -17.78946159     6    84    0    0    0
H 1493.85328314 -45.68040711 15.46600613     6     89    0    0    0
C 1493.47253757 -47.42565614 14.30475126     1     88    90    91    92
H 1494.97066329 -48.21534141 13.28027767     6     89    0    0    0
H 1492.46512316 -48.74987517 15.68412805     6     89    0    0    0
C 1491.78202034 -46.50371283 12.13386260     2     89    93    94    95
H 1490.24313186 -45.41210884 12.89337298     6     92    0    0    0
H 1492.78181550 -45.21108163 10.90993606     6     92    0    0    0
C 1490.77785191 -48.87685803 10.68899394     2     92    96   97   98
H 1492.33346937 -49.45369664 9.45064568     6     95    0    0    0
H 1490.43347716 -50.46257094 11.94676104     6     95    0    0    0
C 1488.44608991 -48.43247031 9.28156376     2     95   99   100   101
H 1486.78599672 -48.08569899 10.50146517     6    98    0    0    0
H 1488.92512830 -46.94044078 8.04197283     6    98    0    0    0
C 1487.84339975 -50.72960507 7.68776638     2    98   102   103   104
H 1489.62855144 -51.28994957 6.61280998     6    101    0    0    0
H 1487.06649398 -52.10938373 8.92094751     6    101    0    0    0
C 1485.74731483 -50.18062998 5.71296334     2    101   105   106   107
H 1484.02570088 -49.63513014 6.82098182     6    104    0    0    0
H 1486.33047956 -48.62710859 4.46164155     6    104    0    0    0
C 1484.94200876 -52.38612426 4.04469428     2    104   108   109   110
H 1486.63991769 -52.96515442 2.99125726     6    107    0    0    0
H 1484.26368054 -54.11004626 5.07073381     6    107    0    0    0
C 1482.80356680 -51.63028377 2.26367257     2    107   111   112   113
H 1481.00319334 -51.78922845 3.36581678     6    110    0    0    0
H 1483.17176272 -49.72668092 1.54461507     6    110    0    0    0
C 1482.92116763 -53.34238719 -0.02167819     2    110   114   115   116
H 1484.74162982 -53.44151904 -0.80659503     6    113    0    0    0
H 1482.54330111 -55.35148281 0.55223928     6    113    0    0    0
C 1480.92271496 -52.58547410 -1.97033569     2    113   117   118   119
H 1479.06633047 -52.95127175 -1.05739286     6    116    0    0    0
H 1481.06163344 -50.54549520 -2.31550644     6    116    0    0    0
C 1481.07856751 -54.12518546 -4.39107646     2    116   120   121   122
H 1479.67998111 -53.22079970 -5.73552049     6    119    0    0    0
H 1482.97430927 -54.12553879 -5.05612320     6    119    0    0    0
C 1480.38177605 -56.96004948 -4.19252101     1    119   123   124   125
H 1481.29385587 -57.84134782 -5.81552077     6    122    0    0    0
H 1478.31228806 -57.33250457 -4.68542397     6    122    0    0    0
H 1480.94650417 -57.91631224 -2.45214640     6    122    0    0    0
H 1499.81342764 -32.25038323 15.98573672     6     127    0    0    0
C 1499.28661587 -30.50477480 15.04701443     1     126    128    129    130
H 1500.76343063 -28.97539358 15.46923874     6     127    0    0    0
H 1499.46876456 -30.80623698 13.01987665     6     127    0    0    0
C 1496.45890351 -30.22466096 15.95580483     2     127    131    132    133
H 1495.39715353 -31.83785313 15.04762770     6     130    0    0    0
H 1496.29055895 -30.54411159 18.08252322     6     130    0    0    0
C 1495.41553395 -27.58870552 15.42407943     2     130    134   135   136
H 1496.69527288 -26.33498990 16.59744337     6     133    0    0    0
H 1495.62991852 -27.24372480 13.33229640     6     133    0    0    0
C 1492.59696348 -27.29143839 16.18041030     2     133   137   138   139
H 1491.46504586 -28.59304907 15.19150624     6    136    0    0    0
H 1492.68810280 -27.76870726 18.21212049     6    136    0    0    0
C 1491.55885023 -24.79215050 15.45147120     2    136   140   141   142
H 1493.11032857 -23.50445051 15.59342029     6    139    0    0    0
H 1490.72466708 -24.71940882 13.51296073     6    139    0    0    0
C 1489.45051908 -23.69494684 17.16633804     2    139   143   144   145
H 1487.89930159 -24.97202546 16.91332680     6    142    0    0    0
H 1490.35792484 -23.76474111 19.16841264     6    142    0    0    0
C 1488.50308598 -20.97368924 16.43203464     2    142   146   147   148
H 1490.13468432 -19.85742713 16.35507707     6    145    0    0    0
H 1487.65090454 -21.00527068 14.50326748     6    145    0    0    0
C 1486.40322393 -19.92552844 18.20991282     2    145   149   150   151
H 1484.83695460 -21.16849912 18.08740259     6    148    0    0    0
H 1487.42058513 -20.00580958 20.02707703     6    148    0    0    0
C 1485.75718214 -17.19616878 17.85193945     2    148   152   153   154
H 1487.30597057 -15.79832915 17.86812117     6    151    0    0    0
H 1484.68139895 -16.96928204 16.02449277     6    151    0    0    0
C 1483.99753029 -16.28903388 19.99670201     2    151   155   156   157
H 1483.14133166 -14.65762168 19.18901860     6    154    0    0    0
H 1482.60116937 -17.77748993 20.21215637     6    154    0    0    0
C 1485.44786058 -15.45849445 22.38604407     2    154   158   159   160
H 1487.01343012 -16.67431912 22.56730657     6    157    0    0    0
H 1486.05806101 -13.46998156 22.19229330     6    157    0    0    0
C 1483.69682720 -15.64684582 24.83881399     1    157   161   162   163
H 1484.71052212 -15.37508869 26.67601633     6    160    0    0    0
H 1482.91735034 -17.59521579 25.00780248     6    160    0    0    0
H 1482.15242542 -14.36748075 24.64568374     6    160    0    0    0
H 1509.14003088 -40.30233559 -1.34925346     6     165    0    0    0
C 1509.85032528 -40.47815515 0.54735005     1     164    166    167    168
H 1509.83957522 -42.43108150 1.16615344     6     165    0    0    0
H 1511.72205438 -39.74598846 0.63563603     6     165    0    0    0
C 1508.23164348 -38.88740613 2.55189967     2     165    169    170    171
H 1507.95554327 -37.10764817 1.62306608     6     168    0    0    0
H 1506.27334474 -39.72802020 2.85382589     6     168    0    0    0
C 1509.66378099 -38.61221652 5.09181864     2     168    172   173   174
H 1509.12662480 -40.22487531 6.22081813     6     171    0    0    0
H 1511.65705630 -38.76419675 4.81061008     6     171    0    0    0
C 1508.78568644 -36.04900369 6.18919727     2     171   175   176   177
H 1508.81478632 -34.44769238 4.80190657     6    174    0    0    0
H 1506.78465866 -36.04938031 6.74098677     6    174    0    0    0
C 1510.12097133 -35.61502850 8.60794845     2    174   178   179   180
H 1510.12193256 -37.34608682 9.78696951     6    177    0    0    0
H 1512.22839013 -35.53119898 8.39562150     6    177    0    0    0
C 1509.14261873 -33.25963536 9.95354380     2    177   181   182   183
H 1507.22284381 -33.25176522 10.46121655     6    180    0    0    0
H 1510.01384443 -33.45367625 11.82163974     6    180    0    0    0
C 1510.00954315 -30.67103963 8.63869642     2    180   184   185   186
H 1511.89283799 -30.61829749 7.78281808     6    183    0    0    0
H 1508.61274576 -30.17424666 7.22677464     6    183    0    0    0
C 1509.73012510 -28.62898736 10.80208946     2    183   187   188   189
H 1507.89263655 -28.88654784 11.62018207     6    186    0    0    0
H 1510.93702519 -29.15287144 12.44998923     6    186    0    0    0
C 1510.34724814 -25.84309364 10.01198816     2    186   190   191   192
H 1512.33233078 -25.75344592 9.38758837     6    189    0    0    0
H 1509.38736776 -25.26787039 8.28780215     6    189    0    0    0
C 1509.94359726 -23.93623746 12.14604226     2    189   193   194   195
H 1508.21177130 -24.31661350 13.04318473     6    192    0    0    0
H 1511.37004803 -23.87993773 13.56348211     6    192    0    0    0
C 1509.91821089 -21.20698835 11.20506948     2    192   196   197   198
H 1511.27145482 -20.97254844 9.75141759     6    195    0    0    0
H 1508.30235301 -20.40475532 10.34685650     6    195    0    0    0
C 1510.76722560 -19.31822738 13.30043035     1    195   199   200   201
H 1510.87924488 -17.40753364 12.62119718     6    198    0    0    0
H 1512.44118114 -19.96251435 14.18273714     6    198    0    0    0
H 1509.18901686 -19.16191221 14.70781158     6    198    0    0    0
H 1496.88719875 -36.03816072 -11.12581348     6     203    0    0    0
C 1496.69159833 -35.47785915 -13.09020375     1     202    204    205    206
H 1498.01069164 -36.45698158 -14.26068365     6     203    0    0    0
H 1494.78336570 -36.06506883 -13.53789890     6     203    0    0    0
C 1497.00015269 -32.57821421 -13.63159810     2     203    207    208    209
H 1496.45461555 -32.00301654 -15.54757046     6     206    0    0    0
H 1495.80416668 -31.77610123 -12.27292135     6     206    0    0    0
C 1499.64582160 -31.72512337 -13.24235266     2     206    210   211   212
H 1500.07438135 -32.26343060 -11.33096138     6     209    0    0    0
H 1500.93346927 -32.78607850 -14.51376453     6     209    0    0    0
C 1500.03287346 -28.84476085 -13.70148947     2     209   213   214   215
H 1498.67427836 -27.60048971 -12.81349689     6    212    0    0    0
H 1501.76375012 -28.46902379 -12.66173270     6    212    0    0    0
C 1500.07112240 -28.31810469 -16.58281183     2    212   216   217   218
H 1500.98937296 -29.80040877 -17.73803368     6    215    0    0    0
H 1498.13969244 -28.42627813 -17.23184523     6    215    0    0    0
C 1501.05876732 -25.79386028 -17.27150676     2    215   219   220   221
H 1500.01117768 -24.40320519 -16.06747819     6    218    0    0    0
H 1502.94118382 -25.63733591 -16.65396128     6    218    0    0    0
C 1500.75012145 -25.18712682 -20.09194448     2    218   222   223   224
H 1501.70705315 -26.58053530 -21.22133946     6    221    0    0    0
H 1498.64096468 -25.31203205 -20.52369373     6    221    0    0    0
C 1501.67936529 -22.53878553 -20.64387287     2    221   225   226   227
H 1501.19575075 -21.42480278 -18.90923720     6    224    0    0    0
H 1503.82743090 -22.63073270 -20.88886320     6    224    0    0    0
C 1500.58106385 -21.34680234 -22.93600033     2    224   228   229   230
H 1500.88362702 -22.62998653 -24.60901688     6    227    0    0    0
H 1498.49208365 -21.05220506 -22.76428023     6    227    0    0    0
C 1501.80165114 -18.62608025 -23.24617207     2    227   231   232   233
H 1501.29953206 -17.27085627 -21.69722110     6    230    0    0    0
H 1503.83915860 -18.39163612 -23.05552641     6    230    0    0    0
C 1500.96492138 -17.61554666 -25.79692311     2    230   234   235   236
H 1501.66549551 -18.75258304 -27.37773261     6    233    0    0    0
H 1498.92260661 -17.51073927 -25.94309074     6    233    0    0    0
C 1502.00416123 -14.84546701 -26.25233792     1    233   237   238   239
H 1501.10792949 -13.69627704 -27.72287771     6    236    0    0    0
H 1504.10538816 -15.07300225 -26.46396100     6    236    0    0    0
H 1501.57570923 -13.79504972 -24.49679526     6    236    0    0    0
H 1474.54349818 -40.63231996 -14.81414177     6     241    0    0    0
C 1475.17150152 -40.38175417 -12.90699735     1     240    242    243    244
H 1476.63704133 -41.78702586 -12.93161143     6     241    0    0    0
H 1475.99120078 -38.57766935 -12.78262294     6     241    0    0    0
C 1473.33481005 -41.36578975 -10.76107492     2     241    245    246    247
H 1472.95187581 -43.24314927 -11.28750329     6     244    0    0    0
H 1474.39182188 -41.53532493 -8.96767609     6     244    0    0    0
C 1470.90695555 -39.96512394 -10.67796337     2     244    248   249   250
H 1469.81677295 -41.21451816 -9.55547086     6     247    0    0    0
H 1471.06617471 -38.16434975 -9.73719896     6     247    0    0    0
C 1469.58668455 -39.69734226 -13.26104336     2     247   251   252   253
H 1467.67708813 -39.07995304 -12.92026022     6    250    0    0    0
H 1470.48001485 -38.34545160 -14.45494004     6    250    0    0    0
C 1468.98159775 -42.26832435 -14.57150874     2    250   254   255   256
H 1470.45168302 -43.59094778 -14.65381003     6    253    0    0    0
H 1467.62951543 -43.11324787 -13.18463069     6    253    0    0    0
C 1467.48381577 -42.04219675 -17.15638489     2    253   257   258   259
H 1466.72842594 -43.78307212 -17.58426988     6    256    0    0    0
H 1465.86424234 -40.86348603 -16.82754127     6    256    0    0    0
C 1468.92360748 -40.87564331 -19.44288996     2    256   260   261   262
H 1469.62530248 -38.89537875 -18.94440023     6    259    0    0    0
H 1470.50088745 -42.09422654 -19.90712846     6    259    0    0    0
C 1467.32750183 -40.82772135 -21.86362584     2    259   263   264   265
H 1467.67206502 -42.38196320 -23.11264868     6    262    0    0    0
H 1465.34930759 -40.91534786 -21.27354657     6    262    0    0    0
C 1467.82103130 -38.49201489 -23.47732029     2    262   266   267   268
H 1467.46778953 -36.89313599 -22.22586080     6    265    0    0    0
H 1469.73493819 -38.47384583 -23.97934384     6    265    0    0    0
C 1466.43127062 -38.34397901 -26.04068473     2    265   269   270   271
H 1466.99464669 -40.14893794 -27.03569030     6    268    0    0    0
H 1464.36449825 -38.36792687 -25.76388606     6    268    0    0    0
C 1466.97115079 -35.96391454 -27.42925832     2    268   272   273   274
H 1466.50840731 -34.42247816 -25.98524675     6    271    0    0    0
H 1469.06325504 -36.03437574 -27.74159838     6    271    0    0    0
C 1465.43975379 -35.46978639 -29.68897246     1    271   275   276   277
H 1465.65643751 -36.90036532 -31.24828301     6    274    0    0    0
H 1465.79679591 -33.65269083 -30.43188948     6    274    0    0    0
H 1463.48119982 -35.33084160 -29.26441433     6    274    0    0    0
H 1490.60163907 -44.09705632 -8.85785111     6     279    0    0    0
C 1488.94053672 -43.37887329 -9.94212623     1     278    280    281    282
H 1488.22196987 -44.76584569 -11.42853256     6     279    0    0    0
H 1487.34444119 -43.09942987 -8.63922126     6     279    0    0    0
C 1489.64651195 -41.14315956 -11.74348806     2     279    283    284    285
H 1489.61670953 -39.49560207 -10.45141019     6     282    0    0    0
H 1491.59735099 -41.21592950 -12.27898250     6     282    0    0    0
C 1487.95390984 -40.68242669 -14.16139786     2     282    286   287   288
H 1487.67185197 -42.48900652 -14.86096734     6     285    0    0    0
H 1486.01536275 -39.94017017 -13.53641483     6     285    0    0    0
C 1489.15628674 -38.94711490 -16.18267312     2     285   289   290   291
H 1489.38202735 -37.12721241 -15.42706087     6    288    0    0    0
H 1491.04848555 -39.36932615 -16.53572138     6    288    0    0    0
C 1487.72284457 -39.04821510 -18.71538060     2    288   292   293   294
H 1487.94078063 -40.85330061 -19.34673518     6    291    0    0    0
H 1485.68392270 -38.60900430 -18.17393083     6    291    0    0    0
C 1488.67644550 -37.19076329 -20.71247915     2    291   295   296   297
H 1488.49246290 -35.37324101 -19.65015800     6    294    0    0    0
H 1490.57258582 -37.63701312 -21.45061128     6    294    0    0    0
C 1487.01641753 -36.74949154 -23.18253553     2    294   298   299   300

   18   -1830.5105122014      4.99E-09 Convergence criterion met
 Total energy in the final basis set = -1828.25034329
 Total job time:  17.31s(wall), 31.03s(cpu)
        *  Thank you very much for using Q-Chem.  Have a nice day.  *

User input: 2 of 2

                  Welcome to Q-Chem
     A Quantum Leap Into The Future Of Chemistry

 Q-Chem 5.4 (devel), Q-Chem, Inc., Pleasanton, CA (2021)

 E. Epifanovsky,  A. T. B. Gilbert,  Xintian Feng,  Joonho Lee,  Yuezhi Mao,
 N. Mardirossian,  P. Pokhilko,  A. White,  M. Wormit,  M. P. Coons,
 A. L. Dempwolff,  Zhengting Gan,  D. Hait,  P. R. Horn,  L. D. Jacobson,
 I. Kaliman,  J. Kussmann,  A. W. Lange,  Ka Un Lao,  D. S. Levine,  Jie Liu,
 S. C. McKenzie,  A. F. Morrison,  K. Nanda,  F. Plasser,  D. R. Rehn,
 M. L. Vidal,  Zhi-Qiang You,  Ying Zhu,  B. Alam,  B. Albrecht,
 A. Aldossary,  E. Alguire,  J. H. Andersen,  D. Barton,  K. Begam,  A. Behn,
 Y. A. Bernard,  E. J. Berquist,  H. Burton,  A. Carreras,  K. Carter-Fenk,
 R. Chakraborty,  A. D. Chien,  K. D. Closser,  V. Cofer-Shabica,
 S. Dasgupta,  Jia Deng,  M. de Wergifosse,  M. Diedenhofen,  Hainam Do,
 S. Ehlert,  Po-Tung Fang,  S. Fatehi,  Qingguo Feng,  T. Friedhoff,
 J. Gayvert,  Qinghui Ge,  G. Gidofalvi,  M. Goldey,  J. Gomes,
 C. Gonzalez-Espinoza,  S. Gulania,  A. Gunina,  M. W. D. Hanson-Heine,
 P. H. P. Harbach,  A. W. Hauser,  M. F. Herbst,  M. Hernandez Vera,
 M. Hodecker,  Z. C. Holden,  S. Houck,  Xunkun Huang,  Kerwin Hui,
 B. C. Huynh,  M. Ivanov,  Hyunjun Ji,  Hanjie Jiang,  B. Kaduk,  S. Kaehler,
 K. Khistyaev,  Jaehoon Kim,  P. Klunzinger,  Z. Koczor-Benda,
 Joong Hoon Koh,  D. Kosenkov,  L. Koulias,  T. Kowalczyk,  C. M. Krauter,
 K. Kue,  A. Kunitsa,  T. Kus,  A. Landau,  K. V. Lawler,  D. Lefrancois,
 S. Lehtola,  Rain Li,  Yi-Pei Li,  Jiashu Liang,  M. Liebenthal,
 Hung-Hsuan Lin,  You-Sheng Lin,  Fenglai Liu,  Kuan-Yu Liu,
 M. Loipersberger,  A. Luenser,  A. Manjanath,  P. Manohar,  E. Mansoor,
 S. F. Manzer,  Shan-Ping Mao,  A. V. Marenich,  T. Markovich,  S. Mason,
 S. A. Maurer,  P. F. McLaughlin,  M. F. S. J. Menger,  J.-M. Mewes,
 S. A. Mewes,  P. Morgante,  J. W. Mullinax,  K. J. Oosterbaan,  G. Paran,
 Alexander C. Paul,  Suranjan K. Paul,  F. Pavosevic,  Zheng Pei,  S. Prager,
 E. I. Proynov,  E. Ramos,  B. Rana,  A. E. Rask,  A. Rettig,  R. M. Richard,
 F. Rob,  E. Rossomme,  T. Scheele,  M. Scheurer,  M. Schneider,
 N. Sergueev,  S. M. Sharada,  W. Skomorowski,  D. W. Small,  C. J. Stein,
 Yu-Chuan Su,  E. J. Sundstrom,  Zhen Tao,  J. Thirman,  T. Tsuchimochi,
 N. M. Tubman,  S. P. Veccham,  O. Vydrov,  J. Wenzel,  J. Witte,  A. Yamada,
 Kun Yao,  S. Yeganeh,  S. R. Yost,  A. Zech,  Igor Ying Zhang,  Xing Zhang,
 Yu Zhang,  D. Zuev,  A. Aspuru-Guzik,  A. T. Bell,  N. A. Besley,
 K. B. Bravaya,  B. R. Brooks,  D. Casanova,  Jeng-Da Chai,  S. Coriani,
 C. J. Cramer,  A. E. DePrince, III,  R. A. DiStasio Jr.,  A. Dreuw,
 B. D. Dunietz,  T. R. Furlani,  W. A. Goddard III,  S. Grimme,
 S. Hammes-Schiffer,  T. Head-Gordon,  W. J. Hehre,  Chao-Ping Hsu,
 T.-C. Jagau,  Yousung Jung,  A. Klamt,  Jing Kong,  D. S. Lambrecht,
 WanZhen Liang,  N. J. Mayhall,  C. W. McCurdy,  J. B. Neaton,
 C. Ochsenfeld,  J. A. Parkhill,  R. Peverati,  V. A. Rassolov,  Yihan Shao,
 L. V. Slipchenko,  T. Stauch,  R. P. Steele,  J. E. Subotnik,
 A. J. W. Thom,  A. Tkatchenko,  D. G. Truhlar,  T. Van Voorhis,
 T. A. Wesolowski,  K. B. Whaley,  H. L. Woodcock III,  P. M. Zimmerman,
 S. Faraji,  P. M. W. Gill,  M. Head-Gordon,  J. M. Herbert,  A. I. Krylov

 Additional authors for Version 5.4.1:
 S. Kotaru,  Shaozhi Li,  Xiangyuan Li,  F. Matz,  A. Molle,  Haisheng Ren,
 Yingli Su,  Hung-Yi Tsai,  C. Utku,  Fang Wang

 Contributors to earlier versions of Q-Chem not listed above:
 R. D. Adamson,  B. Austin,  R. Baer,  J. Baker,  G. J. O. Beran,
 K. Brandhorst,  S. T. Brown,  E. F. C. Byrd,  A. K. Chakraborty,
 G. K. L. Chan,  Chun-Min Chang,  Yunqing Chen,  C.-L. Cheng,
 Siu Hung Chien,  D. M. Chipman,  D. L. Crittenden,  H. Dachsel,
 R. J. Doerksen,  A. D. Dutoi,  R. G. Edgar,  J. Fosso-Tande,
 L. Fusti-Molnar,  D. Ghosh,  A. Ghysels,  A. Golubeva-Zadorozhnaya,
 J. Gonthier,  M. S. Gordon,  S. R. Gwaltney,  G. Hawkins,  J. E. Herr,
 A. Heyden,  S. Hirata,  E. G. Hohenstein,  G. Kedziora,  F. J. Keil,
 C. Kelley,  Jihan Kim,  R. A. King,  R. Z. Khaliullin,  P. P. Korambath,
 W. Kurlancheek,  A. Laurent,  A. M. Lee,  M. S. Lee,  S. V. Levchenko,
 Ching Yeh Lin,  D. Liotard,  E. Livshits,  R. C. Lochan,  I. Lotan,
 L. A. Martinez-Martinez,  P. E. Maslen,  N. Nair,  D. P. O'Neill,
 D. Neuhauser,  E. Neuscamman,  C. M. Oana,  R. Olivares-Amaya,  R. Olson,
 T. M. Perrine,  B. Peters,  P. A. Pieniazek,  A. Prociuk,  Y. M. Rhee,
 J. Ritchie,  M. A. Rohrdanz,  E. Rosta,  N. J. Russ,  H. F. Schaefer III,
 M. W. Schmidt,  N. E. Schultz,  S. Sharma,  N. Shenvi,  C. D. Sherrill,
 A. C. Simmonett,  A. Sodt,  T. Stein,  D. Stuck,  K. S. Thanthiriwatte,
 V. Vanovschi,  L. Vogt,  Tao Wang,  A. Warshel,  M. A. Watson,
 C. F. Williams,  Q. Wu,  X. Xu,  Jun Yang,  W. Zhang,  Yan Zhao

 Please cite Q-Chem as follows:
 Y. Shao et al., Mol. Phys. 113, 184-215 (2015)
 DOI: 10.1080/00268976.2014.952696

 Q-Chem 5.4.1 for Intel X86 EM64T Linux

 Parts of Q-Chem use Armadillo 9.900.5 (Nocturnal Misbehaviour).
 http://arma.sourceforge.net/

 Q-Chem begins on Fri Jul  1 20:00:20 2022

 Host: p09r14n09.grace.hpc.yale.internal
0

     Scratch files written to /home/tl686/scratch60/qchem_dev/scratch/qchem8748//
 Processing $rem in /home/tl686/qchem_dev/qchem/config/preferences:
 Processing $rem in /home/tl686/.qchemrc:
Applying user defined connections for MM calculations
The previous job contains 0 fragments, simply inherited here

 Checking the input file for inconsistencies... 	...done.

--------------------------------------------------------------
User input:
--------------------------------------------------------------

$molecule
READ
$end

$qm_atoms
1:11
$end

$force_field_params
NumAtomTypes 3
AtomType -1   0.0238     3.11   0.2868
AtomType -2   0.07124    3.30   0.6597
AtomType -3  -0.0760     3.09   0.1434
$end

$rem
     JOBTYPE  freq
     METHOD   bp86
     BASIS    def2-msvp
     MAX_SCF_CYCLES   800
     INPUT_BOHR TRUE
     SYM_IGNORE TRUE
     SCF_GUESS     read
     user_connect            true
     qm_mm_interface         ONIOM
     force_field             oplsaa
$end

--------------------------------------------------------------

    3   -1830.5105122024      3.96E-09 Convergence criterion met
 Total energy in the final basis set = -1828.25034329

                    Orbital Energies (a.u.)
 --------------------------------------------------------------

 Alpha MOs
 -- Occupied --
******** -29.6311 -25.5908 -25.5807 -25.5723 -18.8845 -18.8843 -18.8815
-18.8772 -18.8755 -10.0552 -10.0477 -10.0462 -10.0448 -10.0439  -3.3154
 -2.1518  -2.1315  -2.1124  -1.0635  -1.0600  -1.0460  -1.0449  -1.0418
 -0.5720  -0.5263  -0.5190  -0.5180  -0.5119  -0.4539  -0.4443  -0.4354
 -0.4312  -0.4308  -0.4284  -0.4228  -0.4214  -0.4153  -0.4103  -0.4081
 -0.4026  -0.3988  -0.3880  -0.3745  -0.2769  -0.2619  -0.2358  -0.2123

          Ground-State Mulliken Net Atomic Charges

     Atom                 Charge (a.u.)
  ----------------------------------------
      1 Fe                   -0.435152
      2 C                     0.196122
      3 C                     0.231232
      4 C                     0.203958
      5 C                     0.199222
      6 C                     0.168773
      7 O                    -0.123954
      8 O                    -0.096549
      9 O                    -0.094922
     10 O                    -0.120800
     11 O                    -0.127930
  ----------------------------------------
  Sum of atomic charges =     0.000000

                    Cartesian Multipole Moments
 -----------------------------------------------------------------
    Charge (ESU x 10^10)
                -0.0000
    Dipole Moment (Debye)
         X      -0.1137863341      Y       0.2218820807      Z      -0.6933744432
       Tot       0.7368494460
    Quadrupole Moments (Debye-Ang)
        XX    -247.2249     XY     174.5811     YY     -73.7811
        XZ    -541.8446     YZ       6.2863     ZZ     -70.6583
