 Q-Chem 5.4 (devel), Q-Chem, Inc., Pleasanton, CA (2021)
 Q-Chem 5.4.1 for Intel X86 EM64T Linux

User input:
--------------------------------------------------------------
$molecule
0   1
 Fe 1020.99136782 26.25633542 51.79792435    -1  0   0   0   0
C 1019.71270752 27.88698090 49.17137226    -2  0   0   0   0
C 1023.19796555 26.17683677 54.49543156    -2  0   0   0   0
C 1019.19412911 23.28947261 52.04175091    -2  0   0   0   0
C 1023.52266399 25.29976173 49.83505067    -2  0   0   0   0
C 1018.88172278 28.05025567 53.78436300    -2  0   0   0   0
O 1018.91206248 28.82325101 47.36164404    -3  0   0   0   0
O 1024.40855192 25.99345198 56.31581321    -3  0   0   0   0
O 1017.73132753 21.67315529 52.33571749    -3  0   0   0   0
O 1025.32436107 24.83801113 48.65120789    -3  0   0   0   0
O 1017.50650259 29.50487031 54.63342348    -3  0   0   0   0
H 1016.48215528 22.10959174 24.63482050      6     13    0    0    0
C 1016.32755208 23.92852803 23.50249240     1     12    14    15    16
H 1015.18380814 23.43201082 21.78118924     6     13    0    0    0
H 1015.16186290 25.24351437 24.71935680     6     13    0    0    0
C 1018.83373656 24.86163093 22.79725399     2     13    17    18    19
H 1019.28449461 23.91120431 21.01447949     6     16    0    0    0
H 1018.88311466 26.83862757 22.23487167     6     16    0    0    0
C 1020.70104998 24.39966295 24.96154972     2     16    20   21   22
H 1020.01294046 25.21832429 26.61984305     6     19    0    0    0
H 1020.67777344 22.32621992 25.41018903     6     19    0    0    0
C 1023.46037631 25.15273948 24.55770442     2     19   23   24   25
H 1024.17887879 24.16450394 22.88113264     6    22    0    0    0
H 1023.42997525 27.14696778 24.01015814     6    22    0    0    0
C 1025.03377975 24.60189556 26.85612019     2    22   26   27   28
H 1024.10120312 25.30988127 28.51312467     6    25    0    0    0
H 1025.33584452 22.52098953 26.85907975     6    25    0    0    0
C 1027.61697946 26.06679146 26.52344816     2    25   29   30   31
H 1028.10940690 26.08465260 24.45761106     6    28    0    0    0
H 1027.12880952 28.10017124 26.86850069     6    28    0    0    0
C 1029.77898411 25.23625747 28.37870677     2    28   32   33   34
H 1029.07609415 25.26409867 30.20883944     6    31    0    0    0
H 1030.15372191 23.15978562 28.19857692     6    31    0    0    0
C 1032.24505219 26.87799703 28.15492947     2    31   35   36   37
H 1033.31102750 26.38969175 26.46654041     6    34    0    0    0
H 1031.71127376 28.89236025 27.88609160     6    34    0    0    0
C 1034.02051952 26.66593648 30.44640463     2    34   38   39   40
H 1033.22735287 27.66924298 32.10518898     6    37    0    0    0
H 1034.12144289 24.60373067 30.82766899     6    37    0    0    0
C 1036.70186759 27.80480695 30.17311699     2    37   41   42   43
H 1037.36631116 26.85671005 28.48373978     6    40    0    0    0
H 1036.74187836 29.71993099 29.68522719     6    40    0    0    0
C 1038.67528049 27.16575173 32.30869240     2    40   44   45   46
H 1038.21424722 28.13864314 34.06218668     6    43    0    0    0
H 1038.63186309 25.09074424 32.73615746     6    43    0    0    0
C 1041.25473466 28.08002352 31.55926930     1    43   47   48   49
H 1041.83660522 27.31565367 29.58893824     6    46    0    0    0
H 1042.55562248 27.46665517 33.09947761     6    46    0    0    0
H 1041.40545524 30.11908349 31.60341391     6    46    0    0    0
H 1022.79073746 32.71391065 48.17107847     6     51    0    0    0
C 1024.62504641 32.08155374 47.62405214     1     50    52    53    54
H 1025.80317327 33.77907230 47.54182798     6     51    0    0    0
H 1025.61364443 30.93060383 48.99849671     6     51    0    0    0
C 1024.59160493 30.74684264 44.96894722     2     51    55    56    57
H 1023.54307358 29.02121875 45.14194824     6     54    0    0    0
H 1023.38869066 31.84616997 43.69621479     6     54    0    0    0
C 1027.22126781 30.31053194 43.79165175     2     54    58   59   60
H 1028.37766424 29.40525891 45.22876864     6     57    0    0    0
H 1026.93771749 28.65889795 42.52208060     6     57    0    0    0
C 1028.43228714 32.70544380 42.47112368     2     57   61   62   63
H 1027.13869039 33.66011257 41.21750161     6    60    0    0    0
H 1028.70020288 34.12279639 43.81400703     6    60    0    0    0
C 1031.10247257 32.09166151 41.48208426     2    60   64   65   66
H 1032.21948130 31.55679863 43.25268598     6    63    0    0    0
H 1030.88623119 30.38310797 40.39027973     6    63    0    0    0
C 1032.11023250 33.93546923 39.59417470     2    63   67   68   69
H 1033.71529989 33.06473968 38.67717904     6    66    0    0    0
H 1030.64041275 34.58165007 38.16698497     6    66    0    0    0
C 1033.15053291 36.19453482 40.87413477     2    66   70   71   72
H 1031.76143602 37.01716392 42.15294992     6    69    0    0    0
H 1034.78103464 35.63529773 41.97979542     6    69    0    0    0
C 1034.22456585 38.25991157 39.15826712     2    69   73   74   75
H 1035.42896865 37.28164902 37.76161953     6    72    0    0    0
H 1032.46120320 39.01105619 38.43811415     6    72    0    0    0
C 1035.63236887 40.40797871 40.52574593     2    72   76   77   78
H 1034.70726908 41.06660559 42.26273820     6    75    0    0    0
H 1037.39849296 39.80590535 41.27134184     6    75    0    0    0
C 1035.86843526 42.68100700 38.91023250     2    75   79   80   81
H 1036.73131477 42.22026548 36.89548817     6    78    0    0    0
H 1033.78829111 43.16446590 38.58304639     6    78    0    0    0
C 1037.24837183 44.94305211 40.14364253     2    78   82   83   84
H 1035.82912775 45.89318969 41.50025289     6    81    0    0    0
H 1038.72198891 44.30462845 41.51566543     6    81    0    0    0
C 1038.21619741 46.88518858 38.30663734     1    81   85   86   87
H 1038.82971254 48.51834579 39.11362368     6    84    0    0    0
H 1036.67065544 47.54584365 37.18910547     6    84    0    0    0
H 1039.76082380 45.97220726 37.11942045     6    84    0    0    0
H 1041.75887043 -2.00734663 38.90662632     6     89    0    0    0
C 1043.00442760 -1.59562873 37.15109951     1     88    90    91    92
H 1044.64453827 -0.41576769 37.84834627     6     89    0    0    0
H 1043.78467683 -3.41712277 36.45909181     6     89    0    0    0
C 1041.69742484 -0.18665155 35.09381560     2     89    93    94    95
H 1039.98639187 -1.36067244 34.45482741     6     92    0    0    0
H 1041.00261405 1.59260350 35.69875975     6     92    0    0    0
C 1043.52097036 0.80599794 32.97421173     2     92    96   97   98
H 1045.08427936 1.87312489 33.72657812     6     95    0    0    0
H 1044.42043352 -0.75068597 31.88968772     6     95    0    0    0
C 1042.01914084 2.62715833 31.43725370     2     95   99   100   101
H 1040.23588511 1.56866602 30.88000262     6    98    0    0    0
H 1041.42080675 4.19695708 32.58168076     6    98    0    0    0
C 1043.36958233 3.93208948 29.25174644     2    98   102   103   104
H 1045.32267732 4.47738945 29.59254309     6    101    0    0    0
H 1043.46615959 2.69048609 27.62461667     6    101    0    0    0
C 1041.72316501 6.10512304 28.15487499     2    101   105   106   107
H 1040.20609279 5.24009278 27.18740282     6    104    0    0    0
H 1040.94208436 7.13140068 29.72583725     6    104    0    0    0
C 1043.28362448 7.90656453 26.64689856     2    104   108   109   110
H 1045.01982733 8.29769792 27.70717499     6    107    0    0    0
H 1043.66381678 6.82617699 24.88097306     6    107    0    0    0
C 1041.84770737 10.29627379 26.03983508     2    107   111   112   113
H 1040.07549090 9.89353949 25.14115638     6    110    0    0    0
H 1041.30647676 11.37803376 27.71244426     6    110    0    0    0
C 1043.54040546 11.82469655 24.32354112     2    110   114   115   116
H 1045.35753104 12.17311041 25.15121331     6    113    0    0    0
H 1043.89245376 10.75540708 22.64280977     6    113    0    0    0
C 1042.31848739 14.25607573 23.62515162     2    113   117   118   119
H 1040.63923668 13.92340080 22.40309280     6    116    0    0    0
H 1041.91049410 15.35060696 25.30190587     6    116    0    0    0
C 1044.01916462 16.03008625 22.14043335     2    116   120   121   122
H 1045.89790707 16.21984556 23.16212980     6    119    0    0    0
H 1044.80369703 15.17203898 20.33870653     6    119    0    0    0
C 1042.83430807 18.63715376 21.53482074     1    119   123   124   125
H 1043.96512065 19.90240759 20.32004114     6    122    0    0    0
H 1042.84574462 19.80096394 23.28564438     6    122    0    0    0
H 1040.87180208 18.69890013 20.90913025     6    122    0    0    0
H 1041.17268833 -1.42918972 44.79366026     6     127    0    0    0
C 1039.55426016 -0.27039918 44.60637054     1     126    128    129    130
H 1040.21608599 1.66208233 44.33011511     6     127    0    0    0
H 1038.49419566 -0.77040509 42.89475420     6     127    0    0    0
C 1038.06954150 -0.67139151 47.08028923     2     127    131    132    133
H 1037.50682636 -2.68856055 47.27474384     6     130    0    0    0
H 1039.12405055 -0.20457207 48.71794101     6     130    0    0    0
C 1035.88701027 1.11622643 47.18252996     2     130    134   135   136
H 1036.43419987 3.05758087 47.01676322     6     133    0    0    0
H 1034.83490483 0.82742313 45.45034796     6     133    0    0    0
C 1033.89919976 0.87964733 49.38811745     2     133   137   138   139
H 1033.06982533 -0.91935560 49.11132981     6    136    0    0    0
H 1034.97013201 0.73135634 51.15867386     6    136    0    0    0
C 1031.95638625 3.13289389 49.12415034     2    136   140   141   142
H 1032.81742882 5.01884335 49.32751821     6    139    0    0    0
H 1031.37549137 3.39901004 47.11518021     6    139    0    0    0
C 1029.55885301 2.92217223 50.99995849     2    139   143   144   145
H 1028.44332602 1.19672593 50.67674880     6    142    0    0    0
H 1030.15445993 2.96292067 53.01155625     6    142    0    0    0
C 1027.73992103 5.11641637 50.64402672     2    142   146   147   148
H 1028.88973995 6.81554966 50.86973707     6    145    0    0    0
H 1026.91625650 5.06165018 48.68330291     6    145    0    0    0
C 1025.67629866 5.30758851 52.59840706     2    145   149   150   151
H 1024.88295162 3.45396219 52.88046019     6    148    0    0    0
H 1026.60101358 5.86247679 54.41091303     6    148    0    0    0
C 1023.35484865 6.90833910 51.66338803     2    148   152   153   154
H 1024.23594794 8.63823300 51.08951407     6    151    0    0    0
H 1022.49887823 6.07389270 49.93641685     6    151    0    0    0
C 1021.27684654 7.45004441 53.59000107     2    151   155   156   157
H 1019.53369565 8.30490359 52.81017073     6    154    0    0    0
H 1020.64250630 5.66825403 54.26338114     6    154    0    0    0
C 1022.20393465 9.09163018 55.81878395     2    154   158   159   160
H 1023.90005119 8.22468719 56.53759996     6    157    0    0    0
H 1022.87635070 10.77906119 55.10569918     6    157    0    0    0
C 1020.01806248 9.70869067 57.60921137     1    157   161   162   163
H 1018.24368992 10.29785480 56.78636594     6    160    0    0    0
H 1020.57875356 11.18350491 58.96474890     6    160    0    0    0
H 1019.57904000 8.04844811 58.89673065     6    160    0    0    0
H 1059.35800874 13.56124181 57.50828782     6     165    0    0    0
C 1057.72823719 13.36417293 56.22473097     1     164    166    167    168
H 1056.94355352 15.27592877 56.05678863     6     165    0    0    0
H 1058.60130579 12.66479906 54.44819551     6     165    0    0    0
C 1055.95397154 11.37694750 57.31087537     2     165    169    170    171
H 1057.08095614 9.52702556 57.66065699     6     168    0    0    0
H 1055.45667119 12.03612609 59.24047199     6     168    0    0    0
C 1053.45220750 10.84942085 55.80895102     2     168    172   173   174
H 1052.61056212 12.72002575 55.25096165     6     171    0    0    0
H 1054.00500591 10.02634605 54.07183649     6     171    0    0    0
C 1051.68257276 9.12026765 57.10663813     2     171   175   176   177
H 1052.80196486 8.01619801 58.47420972     6    174    0    0    0
H 1050.20848568 10.11644467 58.15105190     6    174    0    0    0
C 1050.35386946 7.29067067 55.12454326     2    174   178   179   180
H 1049.50253950 8.45372515 53.65544042     6    177    0    0    0
H 1052.01254922 6.41010205 54.31453522     6    177    0    0    0
C 1048.48056653 5.26144104 56.22002399     2    177   181   182   183
H 1049.04581493 4.61074372 58.16798818     6    180    0    0    0
H 1046.66867212 6.29189817 56.68722898     6    180    0    0    0
C 1048.16548666 3.02376580 54.55000503     2    180   184   185   186
H 1047.82146908 3.83960368 52.78992175     6    183    0    0    0
H 1049.96220020 1.89454642 54.36732874     6    183    0    0    0
C 1045.94441830 1.46945510 55.61401809     2    183   187   188   189
H 1046.77709992 0.52434673 57.34690606     6    186    0    0    0
H 1044.33936210 2.74347433 56.15338530     6    186    0    0    0
C 1045.05657283 -0.41425036 53.62857025     2    186   190   191   192
H 1043.86560402 0.64183953 52.22972155     6    189    0    0    0
H 1046.74158767 -1.24519378 52.78986018     6    189    0    0    0
C 1043.38308868 -2.54586044 54.54100656     2    189   193   194   195
H 1044.85347217 -3.71064011 55.57306993     6    192    0    0    0
H 1042.03113988 -1.92026565 55.89039249     6    192    0    0    0
C 1042.03723787 -4.20583156 52.48040478     2    192   196   197   198
H 1040.38532008 -3.06723110 51.77575606     6    195    0    0    0
H 1043.17078753 -4.72233710 50.83647559     6    195    0    0    0
C 1041.35122115 -6.64181146 53.93432163     1    195   199   200   201
H 1040.48752832 -8.01395705 52.78654236     6    198    0    0    0
H 1040.07598071 -6.33295800 55.42459743     6    198    0    0    0
H 1042.88641044 -7.68270945 54.73501572     6    198    0    0    0
H 1052.61239360 19.26496829 54.88048258     6     203    0    0    0
C 1053.22720441 19.12309080 52.93797229     1     202    204    205    206
H 1053.38848903 17.12235670 52.64523452     6     203    0    0    0
H 1051.75897821 20.11876643 51.95414154     6     203    0    0    0
C 1055.69586733 20.67969636 52.75735993     2     203    207    208    209
H 1056.90620533 19.70323304 54.17803396     6     206    0    0    0
H 1056.69593454 20.50027048 50.96507707     6     206    0    0    0
C 1055.48890042 23.57957784 53.23798025     2     206    210   211   212
H 1057.49726245 24.10632325 53.10867840     6     209    0    0    0
H 1054.50477389 24.54514501 51.66493410     6     209    0    0    0
C 1054.02773096 24.16409366 55.66365704     2     209   213   214   215
H 1051.96982351 23.63033245 55.45282382     6    212    0    0    0
H 1054.68725482 22.82026232 57.16266723     6    212    0    0    0
C 1054.28871469 26.80400162 56.63966028     2    212   216   217   218
H 1056.16055511 27.56153509 56.27619052     6    215    0    0    0
H 1053.04464474 28.07444418 55.44177299     6    215    0    0    0
C 1053.77342094 26.94262275 59.55786575     2    215   219   220   221
H 1052.05005174 25.93414015 59.81069157     6    218    0    0    0
H 1055.19694645 26.01440819 60.80633440     6    218    0    0    0
C 1053.54934438 29.66525826 60.34381929     2    218   222   223   224
H 1055.37944114 30.72612564 60.61150927     6    221    0    0    0
H 1052.58613158 30.78354777 58.72241673     6    221    0    0    0
C 1051.94973859 30.15780448 62.84288684     2    221   225   226   227
H 1049.99638733 29.20167820 62.63062438     6    224    0    0    0
H 1053.10240965 29.21902513 64.33200233     6    224    0    0    0
C 1051.95935261 33.08563979 63.38697053     2    224   228   229   230
H 1053.87833446 33.80151252 63.39652528     6    227    0    0    0
H 1051.33784123 34.12133547 61.75243302     6    227    0    0    0
C 1050.47640138 34.18473345 65.55014481     2    227   231   232   233
H 1048.47789771 34.07346536 65.33323469     6    230    0    0    0
H 1050.97614464 33.19569989 67.36626471     6    230    0    0    0
C 1051.00008521 36.94021688 66.25867402     2    230   234   235   236
H 1052.93011436 37.07650414 67.33305340     6    233    0    0    0
H 1051.03944776 38.09940627 64.63469256     6    233    0    0    0
C 1049.08117538 38.21140002 68.02916129     1    233   237   238   239
H 1049.49932197 40.23002617 68.76911697     6    236    0    0    0
H 1048.89610166 37.07036930 69.72433941     6    236    0    0    0
H 1047.32962595 38.46223797 67.11267110     6    236    0    0    0
H 1046.54410043 35.14058405 36.20260080     6     241    0    0    0
C 1045.07701628 35.04536319 34.81382062     1     240    242    243    244
H 1045.55324177 33.93010459 33.18630753     6     241    0    0    0
H 1043.50683326 33.91200285 35.54730698     6     241    0    0    0
C 1044.74504970 37.84211036 33.96808436     2     241    245    246    247
H 1044.61745700 39.16204332 35.45403430     6     244    0    0    0
H 1046.34130247 38.49076296 32.92063653     6     244    0    0    0
C 1042.20905179 38.36079737 32.25008735     2     244    248   249   250
H 1042.32376782 37.05618581 30.63176402     6     247    0    0    0
H 1040.63395746 37.59043945 33.41952523     6     247    0    0    0
C 1041.54687981 41.28806345 31.66944677     2     247   251   252   253
H 1039.64549481 41.51152872 31.10381379     6    250    0    0    0
H 1041.65356417 42.36074792 33.46479965     6    250    0    0    0
C 1043.03947321 42.40441166 29.44685028     2    250   254   255   256
H 1045.03725669 42.36957404 29.83297337     6    253    0    0    0
H 1042.81128589 41.23823405 27.77018914     6    253    0    0    0
C 1042.32181633 45.19983513 28.93347860     2    253   257   258   259
H 1043.11410910 45.70456580 27.08785308     6    256    0    0    0
H 1040.19205900 45.27301350 28.47396782     6    256    0    0    0
C 1043.42218757 47.06450913 30.96349662     2    256   260   261   262
H 1042.00126291 47.49266381 32.34801086     6    259    0    0    0
H 1045.01444306 46.24102070 31.97809962     6    259    0    0    0
C 1044.13905697 49.72992288 29.70672064     2    259   263   264   265
H 1045.96103753 49.52484647 28.64243452     6    262    0    0    0
H 1042.63966871 50.28792020 28.39291010     6    262    0    0    0
C 1044.49616600 51.78555481 31.63964613     2    262   266   267   268
H 1042.95308547 52.32241912 33.00442737     6    265    0    0    0
H 1045.93502645 51.20787912 32.93088886     6    265    0    0    0
C 1045.15259375 54.21440460 30.38964700     2    265   269   270   271
H 1046.46841097 53.89308556 28.90043579     6    268    0    0    0
H 1043.49036629 54.85755701 29.37797364     6    268    0    0    0
C 1046.46352589 56.12297800 32.24207027     2    268   272   273   274
H 1045.17637275 56.60836893 33.80173373     6    271    0    0    0
H 1047.95677459 54.95080223 32.99465516     6    271    0    0    0
C 1047.71365798 58.44215405 30.95522876     1    271   275   276   277
H 1048.78134508 58.08556187 29.22513929     6    274    0    0    0
H 1048.82905186 59.50439206 32.33622231     6    274    0    0    0
H 1046.13227409 59.76061070 30.39857985     6    274    0    0    0
H 1055.88487314 13.07963331 44.86155731     6     279    0    0    0
C 1053.93521066 13.75660425 45.28800381     1     278    280    281    282
H 1052.59132091 13.03894537 43.84882768     6     279    0    0    0
H 1053.30551119 12.95348602 47.07981006     6     279    0    0    0
C 1053.72221580 16.73470122 45.14559434     2     279    283    284    285
H 1055.45449601 17.38273946 46.17423072     6     282    0    0    0
H 1053.65610600 17.31915224 43.20621327     6     282    0    0    0
C 1051.33517121 17.86911339 46.47067265     2     282    286   287   288
H 1049.51278950 17.22425582 45.70713575     6     285    0    0    0
H 1051.42540295 17.42066846 48.45657816     6     285    0    0    0
C 1051.34956768 20.68515195 46.44913598     2     285   289   290   291
H 1052.85450100 21.44909750 47.63238940     6    288    0    0    0
H 1051.65084506 21.43448043 44.61409859     6    288    0    0    0
C 1048.80812225 21.60132016 47.43070376     2    288   292   293   294
H 1047.30483822 21.29330256 46.17808011     6    291    0    0    0
H 1048.02256088 20.46882820 49.06004824     6    291    0    0    0
C 1048.79846031 24.51111831 48.09339341     2    291   295   296   297
H 1046.79270602 24.94839517 48.54252074     6    294    0    0    0
H 1050.06355104 24.89917883 49.68607730     6    294    0    0    0
C 1049.43368792 26.26572091 45.89555253     2    294   298   299   300

   17   -1830.5192325941      4.38E-09 Convergence criterion met
 Total energy in the final basis set = -1828.30067239
 Total job time:  16.37s(wall), 29.72s(cpu)
        *  Thank you very much for using Q-Chem.  Have a nice day.  *

User input: 2 of 2

                  Welcome to Q-Chem
     A Quantum Leap Into The Future Of Chemistry

 Q-Chem 5.4 (devel), Q-Chem, Inc., Pleasanton, CA (2021)

 E. Epifanovsky,  A. T. B. Gilbert,  Xintian Feng,  Joonho Lee,  Yuezhi Mao,
 N. Mardirossian,  P. Pokhilko,  A. White,  M. Wormit,  M. P. Coons,
 A. L. Dempwolff,  Zhengting Gan,  D. Hait,  P. R. Horn,  L. D. Jacobson,
 I. Kaliman,  J. Kussmann,  A. W. Lange,  Ka Un Lao,  D. S. Levine,  Jie Liu,
 S. C. McKenzie,  A. F. Morrison,  K. Nanda,  F. Plasser,  D. R. Rehn,
 M. L. Vidal,  Zhi-Qiang You,  Ying Zhu,  B. Alam,  B. Albrecht,
 A. Aldossary,  E. Alguire,  J. H. Andersen,  D. Barton,  K. Begam,  A. Behn,
 Y. A. Bernard,  E. J. Berquist,  H. Burton,  A. Carreras,  K. Carter-Fenk,
 R. Chakraborty,  A. D. Chien,  K. D. Closser,  V. Cofer-Shabica,
 S. Dasgupta,  Jia Deng,  M. de Wergifosse,  M. Diedenhofen,  Hainam Do,
 S. Ehlert,  Po-Tung Fang,  S. Fatehi,  Qingguo Feng,  T. Friedhoff,
 J. Gayvert,  Qinghui Ge,  G. Gidofalvi,  M. Goldey,  J. Gomes,
 C. Gonzalez-Espinoza,  S. Gulania,  A. Gunina,  M. W. D. Hanson-Heine,
 P. H. P. Harbach,  A. W. Hauser,  M. F. Herbst,  M. Hernandez Vera,
 M. Hodecker,  Z. C. Holden,  S. Houck,  Xunkun Huang,  Kerwin Hui,
 B. C. Huynh,  M. Ivanov,  Hyunjun Ji,  Hanjie Jiang,  B. Kaduk,  S. Kaehler,
 K. Khistyaev,  Jaehoon Kim,  P. Klunzinger,  Z. Koczor-Benda,
 Joong Hoon Koh,  D. Kosenkov,  L. Koulias,  T. Kowalczyk,  C. M. Krauter,
 K. Kue,  A. Kunitsa,  T. Kus,  A. Landau,  K. V. Lawler,  D. Lefrancois,
 S. Lehtola,  Rain Li,  Yi-Pei Li,  Jiashu Liang,  M. Liebenthal,
 Hung-Hsuan Lin,  You-Sheng Lin,  Fenglai Liu,  Kuan-Yu Liu,
 M. Loipersberger,  A. Luenser,  A. Manjanath,  P. Manohar,  E. Mansoor,
 S. F. Manzer,  Shan-Ping Mao,  A. V. Marenich,  T. Markovich,  S. Mason,
 S. A. Maurer,  P. F. McLaughlin,  M. F. S. J. Menger,  J.-M. Mewes,
 S. A. Mewes,  P. Morgante,  J. W. Mullinax,  K. J. Oosterbaan,  G. Paran,
 Alexander C. Paul,  Suranjan K. Paul,  F. Pavosevic,  Zheng Pei,  S. Prager,
 E. I. Proynov,  E. Ramos,  B. Rana,  A. E. Rask,  A. Rettig,  R. M. Richard,
 F. Rob,  E. Rossomme,  T. Scheele,  M. Scheurer,  M. Schneider,
 N. Sergueev,  S. M. Sharada,  W. Skomorowski,  D. W. Small,  C. J. Stein,
 Yu-Chuan Su,  E. J. Sundstrom,  Zhen Tao,  J. Thirman,  T. Tsuchimochi,
 N. M. Tubman,  S. P. Veccham,  O. Vydrov,  J. Wenzel,  J. Witte,  A. Yamada,
 Kun Yao,  S. Yeganeh,  S. R. Yost,  A. Zech,  Igor Ying Zhang,  Xing Zhang,
 Yu Zhang,  D. Zuev,  A. Aspuru-Guzik,  A. T. Bell,  N. A. Besley,
 K. B. Bravaya,  B. R. Brooks,  D. Casanova,  Jeng-Da Chai,  S. Coriani,
 C. J. Cramer,  A. E. DePrince, III,  R. A. DiStasio Jr.,  A. Dreuw,
 B. D. Dunietz,  T. R. Furlani,  W. A. Goddard III,  S. Grimme,
 S. Hammes-Schiffer,  T. Head-Gordon,  W. J. Hehre,  Chao-Ping Hsu,
 T.-C. Jagau,  Yousung Jung,  A. Klamt,  Jing Kong,  D. S. Lambrecht,
 WanZhen Liang,  N. J. Mayhall,  C. W. McCurdy,  J. B. Neaton,
 C. Ochsenfeld,  J. A. Parkhill,  R. Peverati,  V. A. Rassolov,  Yihan Shao,
 L. V. Slipchenko,  T. Stauch,  R. P. Steele,  J. E. Subotnik,
 A. J. W. Thom,  A. Tkatchenko,  D. G. Truhlar,  T. Van Voorhis,
 T. A. Wesolowski,  K. B. Whaley,  H. L. Woodcock III,  P. M. Zimmerman,
 S. Faraji,  P. M. W. Gill,  M. Head-Gordon,  J. M. Herbert,  A. I. Krylov

 Additional authors for Version 5.4.1:
 S. Kotaru,  Shaozhi Li,  Xiangyuan Li,  F. Matz,  A. Molle,  Haisheng Ren,
 Yingli Su,  Hung-Yi Tsai,  C. Utku,  Fang Wang

 Contributors to earlier versions of Q-Chem not listed above:
 R. D. Adamson,  B. Austin,  R. Baer,  J. Baker,  G. J. O. Beran,
 K. Brandhorst,  S. T. Brown,  E. F. C. Byrd,  A. K. Chakraborty,
 G. K. L. Chan,  Chun-Min Chang,  Yunqing Chen,  C.-L. Cheng,
 Siu Hung Chien,  D. M. Chipman,  D. L. Crittenden,  H. Dachsel,
 R. J. Doerksen,  A. D. Dutoi,  R. G. Edgar,  J. Fosso-Tande,
 L. Fusti-Molnar,  D. Ghosh,  A. Ghysels,  A. Golubeva-Zadorozhnaya,
 J. Gonthier,  M. S. Gordon,  S. R. Gwaltney,  G. Hawkins,  J. E. Herr,
 A. Heyden,  S. Hirata,  E. G. Hohenstein,  G. Kedziora,  F. J. Keil,
 C. Kelley,  Jihan Kim,  R. A. King,  R. Z. Khaliullin,  P. P. Korambath,
 W. Kurlancheek,  A. Laurent,  A. M. Lee,  M. S. Lee,  S. V. Levchenko,
 Ching Yeh Lin,  D. Liotard,  E. Livshits,  R. C. Lochan,  I. Lotan,
 L. A. Martinez-Martinez,  P. E. Maslen,  N. Nair,  D. P. O'Neill,
 D. Neuhauser,  E. Neuscamman,  C. M. Oana,  R. Olivares-Amaya,  R. Olson,
 T. M. Perrine,  B. Peters,  P. A. Pieniazek,  A. Prociuk,  Y. M. Rhee,
 J. Ritchie,  M. A. Rohrdanz,  E. Rosta,  N. J. Russ,  H. F. Schaefer III,
 M. W. Schmidt,  N. E. Schultz,  S. Sharma,  N. Shenvi,  C. D. Sherrill,
 A. C. Simmonett,  A. Sodt,  T. Stein,  D. Stuck,  K. S. Thanthiriwatte,
 V. Vanovschi,  L. Vogt,  Tao Wang,  A. Warshel,  M. A. Watson,
 C. F. Williams,  Q. Wu,  X. Xu,  Jun Yang,  W. Zhang,  Yan Zhao

 Please cite Q-Chem as follows:
 Y. Shao et al., Mol. Phys. 113, 184-215 (2015)
 DOI: 10.1080/00268976.2014.952696

 Q-Chem 5.4.1 for Intel X86 EM64T Linux

 Parts of Q-Chem use Armadillo 9.900.5 (Nocturnal Misbehaviour).
 http://arma.sourceforge.net/

 Q-Chem begins on Fri Jul  1 20:00:19 2022

 Host: p09r14n09.grace.hpc.yale.internal
0

     Scratch files written to /home/tl686/scratch60/qchem_dev/scratch/qchem8541//
 Processing $rem in /home/tl686/qchem_dev/qchem/config/preferences:
 Processing $rem in /home/tl686/.qchemrc:
Applying user defined connections for MM calculations
The previous job contains 0 fragments, simply inherited here

 Checking the input file for inconsistencies... 	...done.

--------------------------------------------------------------
User input:
--------------------------------------------------------------

$molecule
READ
$end

$qm_atoms
1:11
$end

$force_field_params
NumAtomTypes 3
AtomType -1   0.0238     3.11   0.2868
AtomType -2   0.07124    3.30   0.6597
AtomType -3  -0.0760     3.09   0.1434
$end

$rem
     JOBTYPE  freq
     METHOD   bp86
     BASIS    def2-msvp
     MAX_SCF_CYCLES   800
     INPUT_BOHR TRUE
     SYM_IGNORE TRUE
     SCF_GUESS     read
     user_connect            true
     qm_mm_interface         ONIOM
     force_field             oplsaa
$end

--------------------------------------------------------------

    3   -1830.5192325948      3.37E-09 Convergence criterion met
 Total energy in the final basis set = -1828.30067239

                    Orbital Energies (a.u.)
 --------------------------------------------------------------

 Alpha MOs
 -- Occupied --
******** -29.6325 -25.5910 -25.5837 -25.5731 -18.8864 -18.8831 -18.8795
-18.8790 -18.8719 -10.0516 -10.0490 -10.0481 -10.0435 -10.0386  -3.3176
 -2.1518  -2.1378  -2.1135  -1.0666  -1.0567  -1.0514  -1.0505  -1.0487
 -0.5737  -0.5237  -0.5203  -0.5170  -0.5135  -0.4568  -0.4489  -0.4373
 -0.4356  -0.4335  -0.4301  -0.4257  -0.4240  -0.4135  -0.4119  -0.4093
 -0.4064  -0.4029  -0.3860  -0.3813  -0.2824  -0.2629  -0.2448  -0.2096

          Ground-State Mulliken Net Atomic Charges

     Atom                 Charge (a.u.)
  ----------------------------------------
      1 Fe                   -0.535090
      2 C                     0.199754
      3 C                     0.216703
      4 C                     0.265743
      5 C                     0.190855
      6 C                     0.212204
      7 O                    -0.117491
      8 O                    -0.106545
      9 O                    -0.110602
     10 O                    -0.119393
     11 O                    -0.096137
  ----------------------------------------
  Sum of atomic charges =     0.000000

                    Cartesian Multipole Moments
 -----------------------------------------------------------------
    Charge (ESU x 10^10)
                -0.0000
    Dipole Moment (Debye)
         X      -0.0345031290      Y      -0.2322091271      Z       0.3955028508
       Tot       0.4599283092
    Quadrupole Moments (Debye-Ang)
        XX    -107.1511     XY    -125.9222     YY     -75.4825
        XZ     212.4052     YZ      -0.0820     ZZ     -47.8075
