 Q-Chem 5.4 (devel), Q-Chem, Inc., Pleasanton, CA (2021)
 Q-Chem 5.4.1 for Intel X86 EM64T Linux

User input:
--------------------------------------------------------------
$molecule
0   1
 Fe 381.60508681 39.64274515 61.11031002    -1  0   0   0   0
C 380.79094401 36.68931879 59.92991131    -2  0   0   0   0
C 382.19557658 42.58357371 62.80045995    -2  0   0   0   0
C 384.62359257 38.46765898 61.98737172    -2  0   0   0   0
C 381.05825163 41.07116633 57.90184623    -2  0   0   0   0
C 378.70394742 39.30602137 62.88681300    -2  0   0   0   0
O 379.84225480 34.84097661 59.15288159    -3  0   0   0   0
O 382.49986919 44.52389408 63.79694586    -3  0   0   0   0
O 386.34232022 37.38307879 62.91390566    -3  0   0   0   0
O 380.87079319 41.85419729 55.82097224    -3  0   0   0   0
O 376.90657872 38.89073902 64.08746894    -3  0   0   0   0
H 387.92684189 13.28485250 49.17642705      6     13    0    0    0
C 388.18783931 12.74984633 47.14371941     1     12    14    15    16
H 389.71398049 11.32130788 46.75186813     6     13    0    0    0
H 386.43868186 11.88700065 46.56001664     6     13    0    0    0
C 388.81421989 15.32196102 45.81128632     2     13    17    18    19
H 390.74663958 15.56111327 45.98823575     6     16    0    0    0
H 388.24764799 14.97584684 43.84498214     6     16    0    0    0
C 387.22072995 17.66613584 46.76739448     2     16    20   21   22
H 385.31474104 17.25884977 46.86432916     6     19    0    0    0
H 387.83738832 18.28040672 48.70379603     6     19    0    0    0
C 387.80268139 19.96319568 45.13245767     2     19   23   24   25
H 389.77440110 20.59634419 45.18886333     6    22    0    0    0
H 387.56320518 19.16392023 43.23954197     6    22    0    0    0
C 386.09749278 22.21050868 45.69288643     2    22   26   27   28
H 384.13042546 21.68940823 45.61533297     6    25    0    0    0
H 386.43196181 23.03707693 47.50647332     6    25    0    0    0
C 386.10513465 24.19907468 43.53220955     2    25   29   30   31
H 387.60424708 25.70593224 43.73990530     6    28    0    0    0
H 386.30023470 23.47086949 41.63932887     6    28    0    0    0
C 383.53513724 25.42577239 43.20631586     2    28   32   33   34
H 381.94828297 24.03869553 43.55682640     6    31    0    0    0
H 383.53702523 26.78630495 44.73727775     6    31    0    0    0
C 383.16298284 26.78617694 40.63311730     2    31   35   36   37
H 384.57874248 28.27763218 40.27150473     6    34    0    0    0
H 383.63087800 25.35888631 39.08203425     6    34    0    0    0
C 380.65171753 27.94390886 40.65979240     2    34   38   39   40
H 379.28615111 26.44696784 41.37550134     6    37    0    0    0
H 380.58234542 29.35348906 42.11618719     6    37    0    0    0
C 379.82625768 28.95817598 38.00413572     2    37   41   42   43
H 380.54995269 30.87107545 37.47977335     6    40    0    0    0
H 380.29354354 27.57257350 36.45761931     6    40    0    0    0
C 377.04311279 29.52467079 38.10014920     2    40   44   45   46
H 376.04963201 27.78302488 38.45005750     6    43    0    0    0
H 376.75763868 30.59920964 39.65232552     6    43    0    0    0
C 375.95732183 30.54894476 35.49588967     1    43   47   48   49
H 376.98198555 32.15497485 34.74779105     6    46    0    0    0
H 374.00244312 31.20923843 35.59175399     6    46    0    0    0
H 376.10096660 28.92174490 33.98464225     6    46    0    0    0
H 376.48917457 31.46180791 51.56948861     6     51    0    0    0
C 376.49591031 32.72011570 49.94906076     1     50    52    53    54
H 374.62715692 32.19806405 49.35340499     6     51    0    0    0
H 376.49744499 34.67366471 50.76271526     6     51    0    0    0
C 378.59811839 31.92744484 48.07749708     2     51    55    56    57
H 380.29147657 31.58982048 49.21584549     6     54    0    0    0
H 377.95325263 30.13661846 47.21453652     6     54    0    0    0
C 379.24716323 33.55845059 45.76137283     2     54    58   59   60
H 380.00989746 35.30620224 46.45304603     6     57    0    0    0
H 380.62947635 32.61823550 44.56975023     6     57    0    0    0
C 376.78076156 34.05585703 44.00754455     2     57   61   62   63
H 376.10148783 32.16399116 43.45572662     6    60    0    0    0
H 375.30711574 34.81708710 44.93229900     6    60    0    0    0
C 377.25286245 35.72671413 41.66380744     2    60   64   65   66
H 377.70879058 37.59601914 42.23182055     6    63    0    0    0
H 378.92477862 35.21749651 40.46689968     6    63    0    0    0
C 374.94022377 35.91775471 39.90000123     2    63   67   68   69
H 375.74494836 36.52089555 38.10565594     6    66    0    0    0
H 374.07176834 33.99424014 39.58958767     6    66    0    0    0
C 372.87836636 37.87077728 40.49824825     2    66   70   71   72
H 372.09385653 37.62068054 42.34451345     6    69    0    0    0
H 373.62057136 39.68507622 40.94599507     6    69    0    0    0
C 370.81065239 37.73213711 38.53995226     2    69   73   74   75
H 371.59675206 38.40244683 36.68944752     6    72    0    0    0
H 370.27519230 35.78367731 38.32245784     6    72    0    0    0
C 368.31089533 39.13575043 39.15131303     2    72   76   77   78
H 367.39995130 38.25063546 40.72049456     6    75    0    0    0
H 368.89505205 40.98915475 39.86621918     6    75    0    0    0
C 366.52424906 39.17763557 36.87106391     2    75   79   80   81
H 367.44516770 39.65565164 35.10001294     6    78    0    0    0
H 365.75124747 37.24135657 36.58431789     6    78    0    0    0
C 364.51073538 41.05571641 37.31103876     2    78   82   83   84
H 363.30753824 40.62926546 38.86873965     6    81    0    0    0
H 365.41693321 42.77665034 37.92269703     6    81    0    0    0
C 362.97995863 41.83088726 35.09210891     1    81   85   86   87
H 361.61115959 43.13909272 35.60504151     6    84    0    0    0
H 362.19618446 40.13033745 34.21873034     6    84    0    0    0
H 364.48491018 42.59856195 33.69977036     6    84    0    0    0
H 409.88257065 42.58481357 37.93808070     6     89    0    0    0
C 407.98159108 42.65818758 37.42390884     1     88    90    91    92
H 407.02346666 43.14519782 39.15735526     6     89    0    0    0
H 407.74734185 43.96183905 35.94352094     6     89    0    0    0
C 407.18133546 40.08969487 36.54939445     2     89    93    94    95
H 408.02916259 39.66393262 34.64466126     6     92    0    0    0
H 408.12160371 38.64796500 37.92965360     6     92    0    0    0
C 404.27606976 39.70942488 36.32637555     2     92    96   97   98
H 403.64538960 39.04098024 38.11835789     6     95    0    0    0
H 403.47049813 41.52251572 35.89104765     6     95    0    0    0
C 403.40673977 37.92277396 34.19733303     2     95   99   100   101
H 403.39355868 38.67280441 32.31735672     6    98    0    0    0
H 404.80895960 36.33817030 34.35773493     6    98    0    0    0
C 400.79337697 36.71632175 34.60876893     2    98   102   103   104
H 400.44221047 36.38221025 36.63334522     6    101    0    0    0
H 399.40792169 38.24959857 34.11124802     6    101    0    0    0
C 400.61998710 34.06767180 33.21031788     2    101   105   106   107
H 401.11893349 34.08010295 31.24994022     6    104    0    0    0
H 401.82581800 32.72400919 34.26127712     6    104    0    0    0
C 397.93723984 33.31674571 33.29074350     2    104   108   109   110
H 396.99893241 33.61308911 35.14391903     6    107    0    0    0
H 397.18044856 34.51309307 31.89931050     6    107    0    0    0
C 397.83186548 30.67109255 32.47912269     2    107   111   112   113
H 398.87821975 30.16587594 30.81588335     6    110    0    0    0
H 398.83085295 29.46672091 33.87569102     6    110    0    0    0
C 395.11045060 29.81587502 31.81939194     2    110   114   115   116
H 393.68885640 30.01723151 33.30995070     6    113    0    0    0
H 394.56453361 30.92538291 30.26647250     6    113    0    0    0
C 394.81285000 27.07611539 30.82879249     2    113   117   118   119
H 395.13198606 26.89575922 28.83397143     6    116    0    0    0
H 396.12725928 25.86814265 31.84201651     6    116    0    0    0
C 392.09997451 25.97683374 30.95999721     2    116   120   121   122
H 391.30468588 26.16683986 32.86500571     6    119    0    0    0
H 390.81042731 27.26641790 29.92050053     6    119    0    0    0
C 391.95586784 23.17793623 30.32762233     1    119   123   124   125
H 389.94318437 22.78766703 30.05126637     6    122    0    0    0
H 392.72457348 21.80151716 31.64512219     6    122    0    0    0
H 392.81975342 23.03980696 28.50540030     6    122    0    0    0
H 407.28783238 35.18338540 46.66646113     6     127    0    0    0
C 405.62533873 35.84816742 47.52825032     1     126    128    129    130
H 405.90780400 37.86008863 47.38844501     6     127    0    0    0
H 404.13048621 35.10994348 46.31803615     6     127    0    0    0
C 405.60641301 34.88971283 50.37788723     2     127    131    132    133
H 404.73564192 33.13180785 50.51143561     6     130    0    0    0
H 407.58615409 34.94422324 51.11998850     6     130    0    0    0
C 404.10508893 36.42222588 52.30002847     2     130    134   135   136
H 405.34869994 37.99243883 52.77216608     6     133    0    0    0
H 402.55402578 37.53840949 51.46626325     6     133    0    0    0
C 403.23180176 35.03364241 54.57897758     2     133   137   138   139
H 401.58146067 34.02206124 53.90299895     6    136    0    0    0
H 404.60974511 33.57659294 55.07119439     6    136    0    0    0
C 402.56871369 36.69390883 56.78217729     2    136   140   141   142
H 404.36188410 37.46896090 57.15588871     6    139    0    0    0
H 401.45756928 38.30457279 56.03231056     6    139    0    0    0
C 401.39543960 35.49475862 59.18786610     2    139   143   144   145
H 399.76751369 34.58581298 58.85535740     6    142    0    0    0
H 402.64537209 34.02050222 59.77192549     6    142    0    0    0
C 400.78716314 37.46426269 61.20004791     2    142   146   147   148
H 402.53357863 38.05557753 62.05949836     6    145    0    0    0
H 400.10678546 39.21965233 60.39826202     6    145    0    0    0
C 398.85702231 36.42475621 63.39784644     2    145   149   150   151
H 397.29113316 35.70177050 62.35183380     6    148    0    0    0
H 399.75411166 34.87895056 64.41552146     6    148    0    0    0
C 397.87328546 38.40776918 65.05028178     2    148   152   153   154
H 399.30959779 39.90554740 65.28735844     6    151    0    0    0
H 396.38209551 39.51085612 64.08536918     6    151    0    0    0
C 396.85153935 37.46940961 67.65332868     2    151   155   156   157
H 396.38182581 39.10604297 68.79573929     6    154    0    0    0
H 395.01986544 36.51471191 67.34555979     6    154    0    0    0
C 398.71737739 35.93364762 69.19043480     2    154   158   159   160
H 399.17919230 34.09102601 68.35510569     6    157    0    0    0
H 400.43606282 37.10777152 69.55688449     6    157    0    0    0
C 397.45736588 35.05286331 71.60215457     1    157   161   162   163
H 396.62842329 36.60596948 72.75615589     6    160    0    0    0
H 398.75727723 33.85285655 72.69230982     6    160    0    0    0
H 395.79064165 33.88184035 71.15864049     6    160    0    0    0
H 405.19234717 63.27817191 29.62827000     6     165    0    0    0
C 406.47050265 63.15172936 31.26147114     1     164    166    167    168
H 407.29965568 61.29396204 31.59472333     6     165    0    0    0
H 407.87332446 64.63822693 30.86401269     6     165    0    0    0
C 404.82282832 63.91665842 33.53612374     2     165    169    170    171
H 403.83370240 65.63142526 33.26383310     6     168    0    0    0
H 403.11758702 62.69870682 33.65119204     6     168    0    0    0
C 406.43082064 63.96040836 36.00790826     2     168    172   173   174
H 407.59836569 62.28443444 36.10624884     6     171    0    0    0
H 407.68611555 65.49844389 35.98088029     6     171    0    0    0
C 404.79052473 64.13462254 38.46684866     2     171   175   176   177
H 403.29475952 65.59883153 38.01944763     6    174    0    0    0
H 403.79510832 62.44614630 38.64875682     6    174    0    0    0
C 406.68604726 64.61788473 40.61103926     2    174   178   179   180
H 408.71235447 64.26043018 40.30193452     6    177    0    0    0
H 406.63559462 66.65173316 41.01067507     6    177    0    0    0
C 405.89409217 63.14591431 43.00081136     2    177   181   182   183
H 404.15664250 63.77167351 43.86890202     6    180    0    0    0
H 405.66833809 61.08834151 42.75635547     6    180    0    0    0
C 407.84818221 63.63295902 45.14211279     2    180   184   185   186
H 409.63206943 62.95524383 44.54330815     6    183    0    0    0
H 408.03830423 65.72750097 45.32464308     6    183    0    0    0
C 407.18861158 62.45477564 47.63129608     2    183   187   188   189
H 405.51296302 63.46946798 48.24344130     6    186    0    0    0
H 406.91483701 60.43943363 47.54816632     6    186    0    0    0
C 409.11924395 63.28142900 49.64310553     2    186   190   191   192
H 410.91152608 62.68768348 49.01743740     6    189    0    0    0
H 408.78546361 65.27851459 49.79594605     6    189    0    0    0
C 408.70474261 62.19351317 52.25357832     2    189   193   194   195
H 407.01885811 62.85926187 53.12966104     6    192    0    0    0
H 408.45626806 60.15251718 52.04577330     6    192    0    0    0
C 411.02940196 62.63420416 54.01078913     2    192   196   197   198
H 412.39553179 61.07211536 53.65173477     6    195    0    0    0
H 411.94021757 64.31653168 53.55706027     6    195    0    0    0
C 410.47723570 62.49806364 56.83517902     1    195   199   200   201
H 412.29390723 62.78325290 57.88757229     6    198    0    0    0
H 409.65326656 60.61897765 57.25649306     6    198    0    0    0
H 409.26525643 63.98405391 57.47559534     6    198    0    0    0
H 389.43494389 73.04954514 36.49795403     6     203    0    0    0
C 388.85212430 71.13678335 35.97298029     1     202    204    205    206
H 389.74539130 70.81431700 34.10255763     6     203    0    0    0
H 389.64391194 69.57439355 37.11096615     6     203    0    0    0
C 385.96873954 70.66158449 36.14452258     2     203    207    208    209
H 385.03506627 71.94878897 34.92594125     6     206    0    0    0
H 385.66686380 68.77381147 35.45788674     6     206    0    0    0
C 385.30652032 70.91213255 38.90953578     2     206    210   211   212
H 386.65150236 70.22085933 40.24358500     6     209    0    0    0
H 385.27823838 72.95937271 39.33613493     6     209    0    0    0
C 382.89794711 69.31488310 39.48080240     2     209   213   214   215
H 381.36536897 70.04013847 38.21330069     6    212    0    0    0
H 383.16485354 67.39008534 38.88317254     6    212    0    0    0
C 382.10072319 69.41028201 42.25470661     2    212   216   217   218
H 383.38577730 68.12908201 43.23161847     6    215    0    0    0
H 382.48625984 71.35099775 43.00234713     6    215    0    0    0
C 379.22686423 69.18374443 42.75847017     2    215   219   220   221
H 378.22893855 70.66678804 41.62136446     6    218    0    0    0
H 378.66974339 67.29962323 41.99586131     6    218    0    0    0
C 378.36502595 69.10336260 45.50573262     2    218   222   223   224
H 379.48455822 67.84654634 46.56480940     6    221    0    0    0
H 378.63228872 70.99231841 46.33975741     6    221    0    0    0
C 375.68209274 68.09212533 45.71142866     2    221   225   226   227
H 374.49959408 69.60497521 44.94887161     6    224    0    0    0
H 375.54887923 66.33778401 44.69669049     6    224    0    0    0
C 374.71660030 67.57623944 48.31930225     2    224   228   229   230
H 376.09513799 66.59848644 49.40597352     6    227    0    0    0
H 374.65821524 69.36322905 49.32734099     6    227    0    0    0
C 372.18441155 66.27069653 48.07003808     2    227   231   232   233
H 371.05468841 67.00322398 46.50380328     6    230    0    0    0
H 372.79135671 64.33356377 47.66187103     6    230    0    0    0
C 370.57665387 66.26477260 50.36676939     2    230   234   235   236
H 371.58823211 65.14838046 51.85427797     6    233    0    0    0
H 370.36995960 68.09751437 51.08356680     6    233    0    0    0
C 367.92260857 65.19532062 49.85321429     1    233   237   238   239
H 366.95850532 65.42116462 51.74061550     6    236    0    0    0
H 367.92710447 63.26858518 49.34770100     6    236    0    0    0
H 366.78984293 66.34046258 48.48076752     6    236    0    0    0
H 378.82740710 35.15703389 24.85144776     6     241    0    0    0
C 378.54423563 35.19908767 26.95727741     1     240    242    243    244
H 379.01482747 33.26115451 27.51479415     6     241    0    0    0
H 379.82397151 36.60226845 27.63223160     6     241    0    0    0
C 375.81725028 35.61220900 27.66651483     2     241    245    246    247
H 375.31424165 37.58001240 27.41122855     6     244    0    0    0
H 374.55399594 34.69434220 26.42373366     6     244    0    0    0
C 375.32575187 34.91744389 30.48467809     2     244    248   249   250
H 375.46016721 32.77039026 30.75469385     6     247    0    0    0
H 376.79103344 35.58271182 31.90299746     6     247    0    0    0
C 372.58803001 35.41781908 31.29532751     2     247   251   252   253
H 372.56798539 34.88656120 33.27905197     6    250    0    0    0
H 372.12634590 37.51850287 31.39738953     6    250    0    0    0
C 370.58639789 33.95523183 30.03675259     2    250   254   255   256
H 370.68235514 34.22747779 28.01868057     6    253    0    0    0
H 370.91116066 31.86473723 30.53750993     6    253    0    0    0
C 367.91437886 34.71305061 31.13964989     2    253   257   258   259
H 367.89809813 34.34883662 33.21483579     6    256    0    0    0
H 367.63153760 36.75427100 31.09772991     6    256    0    0    0
C 365.65835861 33.08120527 30.33767024     2    256   260   261   262
H 365.29412842 33.22492340 28.29619529     6    259    0    0    0
H 365.91732678 31.00102910 30.69106784     6    259    0    0    0
C 363.17196952 33.75981415 31.71765795     2    259   263   264   265
H 363.55593818 33.59675398 33.70382608     6    262    0    0    0
H 362.44115266 35.70437778 31.37122266     6    262    0    0    0
C 360.86351734 32.08372555 30.90930214     2    262   266   267   268
H 360.94187389 32.09964705 28.88736855     6    265    0    0    0
H 361.15942966 30.21271333 31.67249249     6    265    0    0    0
C 358.21905177 33.20671707 31.88791215     2    265   269   270   271
H 358.24925226 32.45643149 33.77399641     6    268    0    0    0
H 358.16554539 35.28636410 31.95377679     6    268    0    0    0
C 355.94496981 31.94826070 30.47334413     2    268   272   273   274
H 355.95216002 32.15791854 28.45140233     6    271    0    0    0
H 356.21428759 29.91665694 30.79258249     6    271    0    0    0
C 353.51607787 32.85447433 31.71726396     1    271   275   276   277
H 353.78399591 32.58762212 33.78610253     6    274    0    0    0
H 351.86782844 31.64488536 31.36509400     6    274    0    0    0
H 353.04978116 34.74122673 31.24444534     6    274    0    0    0
H 401.05939903 54.84989183 32.02034458     6     279    0    0    0
C 399.68824211 53.36121479 31.68669158     1     278    280    281    282
H 399.05316741 53.54083791 29.75187782     6     279    0    0    0
H 400.54902610 51.64641483 32.14127438     6     279    0    0    0
C 397.63560680 53.78952207 33.58361231     2     279    283    284    285
H 398.41565135 53.64649579 35.48256413     6     282    0    0    0
H 396.92066285 55.68040741 33.36812701     6     282    0    0    0
C 395.29724067 52.13746873 33.05068904     2     282    286   287   288
H 394.80243088 52.36239609 31.16759213     6     285    0    0    0
H 395.65134229 50.07353995 33.36850651     6     285    0    0    0
C 393.00111595 52.99722726 34.57818380     2     285   289   290   291
H 393.38593849 52.75753566 36.56726660     6    288    0    0    0
H 392.62134276 54.98732800 34.19484034     6    288    0    0    0
C 390.51332317 51.59268853 33.79525763     2    288   292   293   294
H 389.90576871 52.38054684 31.98798463     6    291    0    0    0
H 390.97180555 49.66212044 33.37914836     6    291    0    0    0
C 388.41593209 51.64784424 35.80029316     2    291   295   296   297
H 388.81825376 50.17858861 37.10099973     6    294    0    0    0
H 388.22029509 53.45793627 36.71488518     6    294    0    0    0
C 385.89604427 50.80178345 34.57898528     2    294   298   299   300

   17   -1830.5186733963      6.35E-09 Convergence criterion met
 Total energy in the final basis set = -1828.19918523
 Total job time:  16.74s(wall), 29.53s(cpu)
        *  Thank you very much for using Q-Chem.  Have a nice day.  *

User input: 2 of 2

                  Welcome to Q-Chem
     A Quantum Leap Into The Future Of Chemistry

 Q-Chem 5.4 (devel), Q-Chem, Inc., Pleasanton, CA (2021)

 E. Epifanovsky,  A. T. B. Gilbert,  Xintian Feng,  Joonho Lee,  Yuezhi Mao,
 N. Mardirossian,  P. Pokhilko,  A. White,  M. Wormit,  M. P. Coons,
 A. L. Dempwolff,  Zhengting Gan,  D. Hait,  P. R. Horn,  L. D. Jacobson,
 I. Kaliman,  J. Kussmann,  A. W. Lange,  Ka Un Lao,  D. S. Levine,  Jie Liu,
 S. C. McKenzie,  A. F. Morrison,  K. Nanda,  F. Plasser,  D. R. Rehn,
 M. L. Vidal,  Zhi-Qiang You,  Ying Zhu,  B. Alam,  B. Albrecht,
 A. Aldossary,  E. Alguire,  J. H. Andersen,  D. Barton,  K. Begam,  A. Behn,
 Y. A. Bernard,  E. J. Berquist,  H. Burton,  A. Carreras,  K. Carter-Fenk,
 R. Chakraborty,  A. D. Chien,  K. D. Closser,  V. Cofer-Shabica,
 S. Dasgupta,  Jia Deng,  M. de Wergifosse,  M. Diedenhofen,  Hainam Do,
 S. Ehlert,  Po-Tung Fang,  S. Fatehi,  Qingguo Feng,  T. Friedhoff,
 J. Gayvert,  Qinghui Ge,  G. Gidofalvi,  M. Goldey,  J. Gomes,
 C. Gonzalez-Espinoza,  S. Gulania,  A. Gunina,  M. W. D. Hanson-Heine,
 P. H. P. Harbach,  A. W. Hauser,  M. F. Herbst,  M. Hernandez Vera,
 M. Hodecker,  Z. C. Holden,  S. Houck,  Xunkun Huang,  Kerwin Hui,
 B. C. Huynh,  M. Ivanov,  Hyunjun Ji,  Hanjie Jiang,  B. Kaduk,  S. Kaehler,
 K. Khistyaev,  Jaehoon Kim,  P. Klunzinger,  Z. Koczor-Benda,
 Joong Hoon Koh,  D. Kosenkov,  L. Koulias,  T. Kowalczyk,  C. M. Krauter,
 K. Kue,  A. Kunitsa,  T. Kus,  A. Landau,  K. V. Lawler,  D. Lefrancois,
 S. Lehtola,  Rain Li,  Yi-Pei Li,  Jiashu Liang,  M. Liebenthal,
 Hung-Hsuan Lin,  You-Sheng Lin,  Fenglai Liu,  Kuan-Yu Liu,
 M. Loipersberger,  A. Luenser,  A. Manjanath,  P. Manohar,  E. Mansoor,
 S. F. Manzer,  Shan-Ping Mao,  A. V. Marenich,  T. Markovich,  S. Mason,
 S. A. Maurer,  P. F. McLaughlin,  M. F. S. J. Menger,  J.-M. Mewes,
 S. A. Mewes,  P. Morgante,  J. W. Mullinax,  K. J. Oosterbaan,  G. Paran,
 Alexander C. Paul,  Suranjan K. Paul,  F. Pavosevic,  Zheng Pei,  S. Prager,
 E. I. Proynov,  E. Ramos,  B. Rana,  A. E. Rask,  A. Rettig,  R. M. Richard,
 F. Rob,  E. Rossomme,  T. Scheele,  M. Scheurer,  M. Schneider,
 N. Sergueev,  S. M. Sharada,  W. Skomorowski,  D. W. Small,  C. J. Stein,
 Yu-Chuan Su,  E. J. Sundstrom,  Zhen Tao,  J. Thirman,  T. Tsuchimochi,
 N. M. Tubman,  S. P. Veccham,  O. Vydrov,  J. Wenzel,  J. Witte,  A. Yamada,
 Kun Yao,  S. Yeganeh,  S. R. Yost,  A. Zech,  Igor Ying Zhang,  Xing Zhang,
 Yu Zhang,  D. Zuev,  A. Aspuru-Guzik,  A. T. Bell,  N. A. Besley,
 K. B. Bravaya,  B. R. Brooks,  D. Casanova,  Jeng-Da Chai,  S. Coriani,
 C. J. Cramer,  A. E. DePrince, III,  R. A. DiStasio Jr.,  A. Dreuw,
 B. D. Dunietz,  T. R. Furlani,  W. A. Goddard III,  S. Grimme,
 S. Hammes-Schiffer,  T. Head-Gordon,  W. J. Hehre,  Chao-Ping Hsu,
 T.-C. Jagau,  Yousung Jung,  A. Klamt,  Jing Kong,  D. S. Lambrecht,
 WanZhen Liang,  N. J. Mayhall,  C. W. McCurdy,  J. B. Neaton,
 C. Ochsenfeld,  J. A. Parkhill,  R. Peverati,  V. A. Rassolov,  Yihan Shao,
 L. V. Slipchenko,  T. Stauch,  R. P. Steele,  J. E. Subotnik,
 A. J. W. Thom,  A. Tkatchenko,  D. G. Truhlar,  T. Van Voorhis,
 T. A. Wesolowski,  K. B. Whaley,  H. L. Woodcock III,  P. M. Zimmerman,
 S. Faraji,  P. M. W. Gill,  M. Head-Gordon,  J. M. Herbert,  A. I. Krylov

 Additional authors for Version 5.4.1:
 S. Kotaru,  Shaozhi Li,  Xiangyuan Li,  F. Matz,  A. Molle,  Haisheng Ren,
 Yingli Su,  Hung-Yi Tsai,  C. Utku,  Fang Wang

 Contributors to earlier versions of Q-Chem not listed above:
 R. D. Adamson,  B. Austin,  R. Baer,  J. Baker,  G. J. O. Beran,
 K. Brandhorst,  S. T. Brown,  E. F. C. Byrd,  A. K. Chakraborty,
 G. K. L. Chan,  Chun-Min Chang,  Yunqing Chen,  C.-L. Cheng,
 Siu Hung Chien,  D. M. Chipman,  D. L. Crittenden,  H. Dachsel,
 R. J. Doerksen,  A. D. Dutoi,  R. G. Edgar,  J. Fosso-Tande,
 L. Fusti-Molnar,  D. Ghosh,  A. Ghysels,  A. Golubeva-Zadorozhnaya,
 J. Gonthier,  M. S. Gordon,  S. R. Gwaltney,  G. Hawkins,  J. E. Herr,
 A. Heyden,  S. Hirata,  E. G. Hohenstein,  G. Kedziora,  F. J. Keil,
 C. Kelley,  Jihan Kim,  R. A. King,  R. Z. Khaliullin,  P. P. Korambath,
 W. Kurlancheek,  A. Laurent,  A. M. Lee,  M. S. Lee,  S. V. Levchenko,
 Ching Yeh Lin,  D. Liotard,  E. Livshits,  R. C. Lochan,  I. Lotan,
 L. A. Martinez-Martinez,  P. E. Maslen,  N. Nair,  D. P. O'Neill,
 D. Neuhauser,  E. Neuscamman,  C. M. Oana,  R. Olivares-Amaya,  R. Olson,
 T. M. Perrine,  B. Peters,  P. A. Pieniazek,  A. Prociuk,  Y. M. Rhee,
 J. Ritchie,  M. A. Rohrdanz,  E. Rosta,  N. J. Russ,  H. F. Schaefer III,
 M. W. Schmidt,  N. E. Schultz,  S. Sharma,  N. Shenvi,  C. D. Sherrill,
 A. C. Simmonett,  A. Sodt,  T. Stein,  D. Stuck,  K. S. Thanthiriwatte,
 V. Vanovschi,  L. Vogt,  Tao Wang,  A. Warshel,  M. A. Watson,
 C. F. Williams,  Q. Wu,  X. Xu,  Jun Yang,  W. Zhang,  Yan Zhao

 Please cite Q-Chem as follows:
 Y. Shao et al., Mol. Phys. 113, 184-215 (2015)
 DOI: 10.1080/00268976.2014.952696

 Q-Chem 5.4.1 for Intel X86 EM64T Linux

 Parts of Q-Chem use Armadillo 9.900.5 (Nocturnal Misbehaviour).
 http://arma.sourceforge.net/

 Q-Chem begins on Fri Jul  1 20:00:19 2022

 Host: p09r14n09.grace.hpc.yale.internal
0

     Scratch files written to /home/tl686/scratch60/qchem_dev/scratch/qchem8574//
 Processing $rem in /home/tl686/qchem_dev/qchem/config/preferences:
 Processing $rem in /home/tl686/.qchemrc:
Applying user defined connections for MM calculations
The previous job contains 0 fragments, simply inherited here

 Checking the input file for inconsistencies... 	...done.

--------------------------------------------------------------
User input:
--------------------------------------------------------------

$molecule
READ
$end

$qm_atoms
1:11
$end

$force_field_params
NumAtomTypes 3
AtomType -1   0.0238     3.11   0.2868
AtomType -2   0.07124    3.30   0.6597
AtomType -3  -0.0760     3.09   0.1434
$end

$rem
     JOBTYPE  freq
     METHOD   bp86
     BASIS    def2-msvp
     MAX_SCF_CYCLES   800
     INPUT_BOHR TRUE
     SYM_IGNORE TRUE
     SCF_GUESS     read
     user_connect            true
     qm_mm_interface         ONIOM
     force_field             oplsaa
$end

--------------------------------------------------------------

    3   -1830.5186733968      2.31E-09 Convergence criterion met
 Total energy in the final basis set = -1828.19918523

                    Orbital Energies (a.u.)
 --------------------------------------------------------------

 Alpha MOs
 -- Occupied --
******** -29.6364 -25.5957 -25.5852 -25.5783 -18.8898 -18.8843 -18.8818
-18.8801 -18.8687 -10.0569 -10.0531 -10.0514 -10.0503 -10.0400  -3.3221
 -2.1584  -2.1373  -2.1213  -1.0607  -1.0543  -1.0495  -1.0455  -1.0325
 -0.5788  -0.5276  -0.5235  -0.5190  -0.5132  -0.4575  -0.4475  -0.4376
 -0.4349  -0.4314  -0.4283  -0.4243  -0.4194  -0.4138  -0.4093  -0.4056
 -0.4029  -0.3958  -0.3909  -0.3788  -0.2834  -0.2718  -0.2365  -0.2234

          Ground-State Mulliken Net Atomic Charges

     Atom                 Charge (a.u.)
  ----------------------------------------
      1 Fe                   -0.444225
      2 C                     0.169140
      3 C                     0.209965
      4 C                     0.202768
      5 C                     0.244163
      6 C                     0.218191
      7 O                    -0.126433
      8 O                    -0.107149
      9 O                    -0.137884
     10 O                    -0.118307
     11 O                    -0.110230
  ----------------------------------------
  Sum of atomic charges =     0.000000

                    Cartesian Multipole Moments
 -----------------------------------------------------------------
    Charge (ESU x 10^10)
                -0.0000
    Dipole Moment (Debye)
         X      -0.2040556169      Y       0.4789460635      Z      -0.0964374463
       Tot       0.5294602983
    Quadrupole Moments (Debye-Ang)
        XX    -152.3655     XY      92.3435     YY     -49.5578
        XZ     -26.6220     YZ      14.0241     ZZ     -76.0609
