 Q-Chem 5.4 (devel), Q-Chem, Inc., Pleasanton, CA (2021)
 Q-Chem 5.4.1 for Intel X86 EM64T Linux

User input:
--------------------------------------------------------------
$molecule
0   1
 Fe 930.21271193 -56.07552304 68.53344040    -1  0   0   0   0
C 929.72798557 -55.29066342 71.84554442    -2  0   0   0   0
C 930.85285221 -55.56794697 65.29226537    -2  0   0   0   0
C 933.45352506 -55.03741062 69.14258235    -2  0   0   0   0
C 929.93592669 -59.57903642 68.32259966    -2  0   0   0   0
C 927.14889526 -54.99519401 67.86399501    -2  0   0   0   0
O 929.69982712 -54.86921674 74.03058708    -3  0   0   0   0
O 931.36745455 -55.15703835 63.18893843    -3  0   0   0   0
O 935.47184399 -54.54383029 69.79274174    -3  0   0   0   0
O 929.89450072 -61.83613452 68.26493726    -3  0   0   0   0
O 924.98280205 -54.37052113 67.51718867    -3  0   0   0   0
H 940.42788636 -66.91334254 91.55098177      6     13    0    0    0
C 942.28585003 -67.56088322 90.83325636     1     12    14    15    16
H 943.30962109 -65.86478505 90.26956157     6     13    0    0    0
H 943.31857755 -68.72841065 92.21293812     6     13    0    0    0
C 941.87204012 -69.25096886 88.55442335     2     13    17    18    19
H 942.27233035 -68.30060577 86.78111232     6     16    0    0    0
H 943.37647101 -70.64471913 88.79432868     6     16    0    0    0
C 939.48226049 -70.81708132 88.43397356     2     16    20   21   22
H 938.96903165 -71.65001810 90.15081399     6     19    0    0    0
H 937.92065988 -69.41387025 88.27086160     6     19    0    0    0
C 939.27882968 -72.73848664 86.28051487     2     19   23   24   25
H 939.61566473 -71.64799103 84.57426605     6    22    0    0    0
H 940.81131630 -74.13864697 86.46691425     6    22    0    0    0
C 936.67616545 -73.72646695 85.81031126     2    22   26   27   28
H 935.68928709 -74.63479527 87.46859735     6    25    0    0    0
H 935.49789418 -72.16375203 85.65976206     6    25    0    0    0
C 936.73783763 -75.35359824 83.35983883     2    25   29   30   31
H 938.10444075 -74.77309414 82.01475625     6    28    0    0    0
H 937.26806207 -77.25846352 83.87891108     6    28    0    0    0
C 934.27062875 -75.45718381 81.94394004     2    28   32   33   34
H 932.86872534 -75.83941013 83.29081880     6    31    0    0    0
H 933.68594830 -73.78534643 80.84439458     6    31    0    0    0
C 934.23846449 -77.73073946 80.10742430     2    31   35   36   37
H 935.96240350 -77.61670110 79.08294774     6    34    0    0    0
H 934.62340351 -79.48203209 81.18757276     6    34    0    0    0
C 932.01065827 -77.73042668 78.43247453     2    34   38   39   40
H 930.38566801 -78.41753426 79.44847012     6    37    0    0    0
H 931.62746529 -75.76816244 77.92398572     6    37    0    0    0
C 932.43406236 -79.41603127 76.10960576     2    37   41   42   43
H 934.19089064 -79.08620872 75.28307088     6    40    0    0    0
H 932.29342322 -81.27682913 76.68202785     6    40    0    0    0
C 930.13957647 -78.99421817 74.25694175     2    40   44   45   46
H 928.35888220 -79.37729510 75.35948814     6    43    0    0    0
H 929.79880520 -77.03748736 73.75911225     6    43    0    0    0
C 930.23724348 -80.78678911 71.95442370     1    43   47   48   49
H 932.08759248 -80.78746107 71.21126826     6    46    0    0    0
H 928.97258265 -80.00947699 70.37366302     6    46    0    0    0
H 930.09990674 -82.80096394 72.36426555     6    46    0    0    0
H 925.70735644 -68.81718179 69.03672930     6     51    0    0    0
C 927.58880580 -68.24297703 68.60738235     1     50    52    53    54
H 927.58589446 -67.31478325 66.76261019     6     51    0    0    0
H 927.87561855 -66.80223541 69.94595768     6     51    0    0    0
C 929.50239896 -70.49073655 68.94167965     2     51    55    56    57
H 931.51871290 -69.86289173 68.49959325     6     54    0    0    0
H 929.49077525 -70.84965315 70.95108666     6     54    0    0    0
C 928.81586122 -73.10705217 67.64776794     2     54    58   59   60
H 928.29119490 -72.67100652 65.64456377     6     57    0    0    0
H 930.34585198 -74.36106519 67.39282795     6     57    0    0    0
C 926.48581322 -74.29768235 68.74290092     2     57   61   62   63
H 926.77421787 -74.67561924 70.81144046     6    60    0    0    0
H 924.90719011 -72.94237979 68.72996916     6    60    0    0    0
C 925.50926286 -76.53384264 67.20696872     2    60   64   65   66
H 925.21563552 -75.99036752 65.15737158     6    63    0    0    0
H 926.95339705 -77.96633591 67.15017223     6    63    0    0    0
C 923.12385589 -77.52646668 68.34298439     2    63   67   68   69
H 922.80784211 -79.39500165 67.61745392     6    66    0    0    0
H 923.44375101 -77.73130187 70.38325460     6    66    0    0    0
C 920.84803555 -75.88201485 67.45767326     2    66   70   71   72
H 921.20612102 -73.95826197 68.28177125     6    69    0    0    0
H 920.66465471 -75.98429671 65.43470733     6    69    0    0    0
C 918.29900713 -76.73301737 68.66805304     2    69   73   74   75
H 917.90992027 -78.65714699 68.12737657     6    72    0    0    0
H 918.53888835 -76.73121165 70.70028929     6    72    0    0    0
C 915.85613972 -75.22186365 67.78527552     2    72   76   77   78
H 916.03550938 -73.18183414 68.07023845     6    75    0    0    0
H 915.71353925 -75.49245429 65.76372328     6    75    0    0    0
C 913.39617653 -76.40805267 68.87770950     2    75   79   80   81
H 913.28042932 -78.27004392 68.18984194     6    78    0    0    0
H 913.38908644 -76.42968968 70.96726819     6    78    0    0    0
C 910.97855721 -74.81671074 68.16200880     2    78   82   83   84
H 910.39976612 -73.34812585 69.53438900     6    81    0    0    0
H 911.08549886 -73.96078974 66.32983691     6    81    0    0    0
C 908.75693626 -76.73721787 68.00642209     1    81   85   86   87
H 909.21156604 -78.08266110 66.66328223     6    84    0    0    0
H 906.94859928 -75.82730617 67.25402911     6    84    0    0    0
H 908.19235579 -77.73422930 69.76965536     6    84    0    0    0
H 953.79553674 -80.35775082 76.23033530     6     89    0    0    0
C 952.75300329 -82.11057632 76.41464888     1     88    90    91    92
H 950.76848226 -81.58700690 76.61555267     6     89    0    0    0
H 952.70468193 -83.31106808 74.58565879     6     89    0    0    0
C 953.71944207 -83.89277567 78.47672977     2     89    93    94    95
H 955.79824263 -84.32474164 78.00721147     6     92    0    0    0
H 953.62801502 -83.04409547 80.27758766     6     92    0    0    0
C 952.03778905 -86.43093495 78.43414913     2     92    96   97   98
H 952.01234762 -87.39457123 76.54644105     6     95    0    0    0
H 953.03116141 -87.81290160 79.56700544     6     95    0    0    0
C 949.37370526 -86.29734023 79.37124837     2     95   99   100   101
H 949.65627381 -85.94563912 81.32912740     6    98    0    0    0
H 948.33589181 -84.93207767 78.40734449     6    98    0    0    0
C 948.14951198 -88.82918181 79.10259287     2    98   102   103   104
H 948.41419623 -89.36434368 77.02675437     6    101    0    0    0
H 948.88052049 -90.27401341 80.36630625     6    101    0    0    0
C 945.24769958 -88.46392059 79.61888635     2    101   105   106   107
H 944.99196733 -87.15826451 81.20441860     6    104    0    0    0
H 944.31929666 -87.78655158 78.02358577     6    104    0    0    0
C 943.93961635 -91.02928810 80.07463156     2    104   108   109   110
H 944.61903490 -92.52803031 78.88045121     6    107    0    0    0
H 944.24058259 -91.82428596 82.05492338     6    107    0    0    0
C 941.01491295 -90.65853150 79.72637802     2    107   111   112   113
H 940.49422348 -88.95017468 80.81084439     6    110    0    0    0
H 940.57443485 -89.95859662 77.73682167     6    110    0    0    0
C 939.53926597 -92.96297171 80.52668138     2    110   114   115   116
H 940.18999715 -94.54128120 79.33815472     6    113    0    0    0
H 939.74254703 -93.59353027 82.40326272     6    113    0    0    0
C 936.51536309 -92.29728206 80.40542702     2    113   117   118   119
H 936.24039727 -90.73452704 81.67416846     6    116    0    0    0
H 935.70648171 -91.87533241 78.56877101     6    116    0    0    0
C 934.92775665 -94.52399833 81.59465782     2    116   120   121   122
H 933.05638605 -94.10723547 80.80935767     6    119    0    0    0
H 935.65854389 -96.30523981 80.81984259     6    119    0    0    0
C 934.71543746 -94.45572575 84.56830018     1    119   123   124   125
H 933.38069522 -95.84436044 85.40071422     6    122    0    0    0
H 933.75946808 -92.54898086 84.90953389     6    122    0    0    0
H 936.59987316 -94.62400237 85.23156179     6    122    0    0    0
H 957.14709431 -69.40505999 68.80965092     6     127    0    0    0
C 957.37456916 -67.36908929 69.33632563     1     126    128    129    130
H 958.34074482 -67.12658371 71.13433773     6     127    0    0    0
H 958.72962554 -66.78524539 67.99803377     6     127    0    0    0
C 954.85845221 -65.82851052 69.15946436     2     127    131    132    133
H 953.80876205 -66.25684010 67.49873480     6     130    0    0    0
H 953.67665212 -66.38369960 70.67205009     6     130    0    0    0
C 955.30701110 -63.04590482 68.82112359     2     130    134   135   136
H 956.37202730 -62.43444626 70.56682095     6     133    0    0    0
H 956.33129399 -62.70149098 67.15537491     6     133    0    0    0
C 952.98150184 -61.39001362 68.79595586     2     133   137   138   139
H 951.72034995 -62.03347286 67.33165630     6    136    0    0    0
H 951.73776576 -61.92060073 70.43224566     6    136    0    0    0
C 953.73513994 -58.56177230 68.54392916     2    136   140   141   142
H 955.50600873 -58.20178435 69.61280691     6    139    0    0    0
H 954.07898773 -58.05506523 66.58946636     6    139    0    0    0
C 951.41523115 -57.05812079 69.51612029     2    139   143   144   145
H 949.82727834 -57.44973155 68.15043341     6    142    0    0    0
H 950.80130984 -57.46782712 71.47831452     6    142    0    0    0
C 951.75629677 -54.15905597 69.48234564     2    142   146   147   148
H 953.55845537 -53.58234871 70.50814382     6    145    0    0    0
H 952.06649580 -53.44140118 67.60895890     6    145    0    0    0
C 949.61652422 -52.59387725 70.56098515     2    145   149   150   151
H 947.94378814 -52.95291651 69.39768049     6    148    0    0    0
H 949.22049107 -53.31751784 72.53588387     6    148    0    0    0
C 950.44339416 -49.83994711 70.61514839     2    148   152   153   154
H 951.84587324 -49.49396005 72.01847598     6    151    0    0    0
H 951.55531192 -49.33320309 68.90543224     6    151    0    0    0
C 948.03967087 -48.25878508 71.00415087     2    151   155   156   157
H 948.65873396 -46.45064024 70.45403560     6    154    0    0    0
H 946.52327876 -48.87836663 69.86794595     6    154    0    0    0
C 947.39193366 -48.00138680 73.83099453     2    154   158   159   160
H 945.83348075 -46.68582839 73.83037495     6    157    0    0    0
H 946.58885281 -49.56927740 74.83436245     6    157    0    0    0
C 949.55589812 -47.09349124 75.60375297     1    157   161   162   163
H 949.23217054 -46.33413137 77.46282409     6    160    0    0    0
H 950.17561163 -45.36507562 74.70636878     6    160    0    0    0
H 951.19655120 -48.13681251 75.59177785     6    160    0    0    0
H 951.29094677 -79.39645123 55.33710913     6     165    0    0    0
C 951.99363276 -77.77547511 56.45797644     1     164    166    167    168
H 950.54711432 -77.03024604 57.67643418     6     165    0    0    0
H 953.50814369 -78.38658289 57.62512758     6     165    0    0    0
C 953.34618303 -76.10058032 54.60219509     2     165    169    170    171
H 954.36628423 -77.34653379 53.41094753     6     168    0    0    0
H 951.85241699 -75.34258774 53.34366916     6     168    0    0    0
C 954.99731142 -74.00307397 55.60044955     2     168    172   173   174
H 953.87884342 -72.57688118 56.77328425     6     171    0    0    0
H 956.60680395 -74.78036774 56.70979801     6     171    0    0    0
C 955.96674949 -72.45581995 53.29962442     2     171   175   176   177
H 957.00615845 -73.62036087 52.06965505     6    174    0    0    0
H 954.51888259 -71.73410354 52.09677556     6    174    0    0    0
C 957.47830334 -70.11882244 54.48727163     2    174   178   179   180
H 956.32553175 -69.35918623 55.98833501     6    177    0    0    0
H 959.23062772 -70.60078364 55.32909622     6    177    0    0    0
C 958.00242937 -68.19179384 52.46121945     2    177   181   182   183
H 958.81252428 -68.89303602 50.76158716     6    180    0    0    0
H 956.25950151 -67.13565528 51.93563326     6    180    0    0    0
C 959.55983330 -66.01340966 53.41843926     2    180   184   185   186
H 958.91555223 -65.64905596 55.33336775     6    183    0    0    0
H 961.49632110 -66.56366795 53.76337360     6    183    0    0    0
C 959.31530063 -63.59487065 51.84328582     2    183   187   188   189
H 960.42256610 -63.70443252 50.24784718     6    186    0    0    0
H 957.28197441 -63.29642041 51.20391797     6    186    0    0    0
C 959.88215981 -61.18320387 53.37419227     2    186   190   191   192
H 958.37975579 -61.02904407 54.76459619     6    189    0    0    0
H 961.69517819 -61.48762743 54.38990250     6    189    0    0    0
C 959.76851458 -58.77234723 51.86438025     2    189   193   194   195
H 960.84770851 -58.99143956 50.06630975     6    192    0    0    0
H 957.83757782 -58.33118246 51.61224791     6    192    0    0    0
C 960.60765432 -56.55741224 53.61621873     2    192   196   197   198
H 959.76898371 -56.69004844 55.48308634     6    195    0    0    0
H 962.66490182 -56.50561599 53.87461869     6    195    0    0    0
C 959.91188429 -53.96468880 52.54163320     1    195   199   200   201
H 957.78747760 -53.62489790 52.17782228     6    198    0    0    0
H 960.93129388 -53.44492902 50.87712267     6    198    0    0    0
H 960.69916574 -52.63153268 53.86352413     6    198    0    0    0
H 938.89550231 -71.99523457 56.81859904     6     203    0    0    0
C 940.25114246 -73.52529939 56.04900906     1     202    204    205    206
H 941.40850776 -72.79023913 54.62783664     6     203    0    0    0
H 941.56928303 -74.32811075 57.38094340     6     203    0    0    0
C 939.02860297 -75.86327777 55.06391169     2     203    207    208    209
H 940.43413875 -77.27125540 54.92640688     6     206    0    0    0
H 937.75830820 -76.56589815 56.38018672     6     206    0    0    0
C 937.46555045 -75.77557500 52.60788737     2     206    210   211   212
H 937.09673156 -77.81376112 52.11746468     6     209    0    0    0
H 935.39684026 -75.31149202 53.10547390     6     209    0    0    0
C 938.51304661 -74.40249512 50.27756560     2     209   213   214   215
H 938.75758246 -72.42638563 50.77929398     6    212    0    0    0
H 940.40727735 -75.19324450 50.13361631     6    212    0    0    0
C 937.19946676 -75.00810480 47.76222023     2    212   216   217   218
H 936.73084767 -76.98133067 47.61974949     6    215    0    0    0
H 935.36038530 -74.21830524 47.67152507     6    215    0    0    0
C 938.77449562 -74.36279667 45.35626548     2    215   219   220   221
H 939.23440575 -72.31496071 45.47346975     6    218    0    0    0
H 940.53704033 -75.59530698 45.17969495     6    218    0    0    0
C 937.35333351 -74.48454569 42.74458489     2    218   222   223   224
H 938.75073484 -74.75506534 41.33901616     6    221    0    0    0
H 936.20234224 -76.11691682 42.69332617     6    221    0    0    0
C 935.62203692 -72.37500599 41.96978670     2    221   225   226   227
H 934.61481073 -71.66799671 43.74036152     6    224    0    0    0
H 936.57199483 -70.72956802 41.37974523     6    224    0    0    0
C 933.59173708 -72.93874110 39.89009558     2    224   228   229   230
H 934.35935770 -73.99780117 38.26852140     6    227    0    0    0
H 932.06442848 -73.89696209 40.80342315     6    227    0    0    0
C 932.71724184 -70.60528509 38.53624011     2    227   231   232   233
H 931.57705695 -69.56652758 39.94358103     6    230    0    0    0
H 934.32848651 -69.53693854 37.75288167     6    230    0    0    0
C 930.85531429 -71.21308622 36.43063721     2    230   234   235   236
H 930.72337713 -69.58986618 35.40608763     6    233    0    0    0
H 931.58408575 -72.67080706 35.12846734     6    233    0    0    0
C 928.28553425 -71.99089568 37.40174914     1    233   237   238   239
H 926.94276402 -72.38502484 35.79102272     6    236    0    0    0
H 927.54230351 -70.35636016 38.61594823     6    236    0    0    0
H 928.20071915 -73.59919683 38.63017010     6    236    0    0    0
H 918.96298610 -89.14479164 69.08827452     6     241    0    0    0
C 919.44519501 -88.81069624 67.21329044     1     240    242    243    244
H 919.94839710 -90.68583568 66.49444466     6     241    0    0    0
H 917.83744241 -88.06230063 66.05165634     6     241    0    0    0
C 921.65932977 -86.99265927 66.98146166     2     241    245    246    247
H 923.31885243 -87.78071923 67.91855463     6     244    0    0    0
H 922.34711700 -86.49049461 65.06364362     6     244    0    0    0
C 921.13715516 -84.49956480 68.41299530     2     244    248   249   250
H 922.75479394 -83.45228758 67.84202955     6     247    0    0    0
H 919.56318760 -83.55948443 67.64105674     6     247    0    0    0
C 920.84058783 -84.59592624 71.24832413     2     247   251   252   253
H 919.83015206 -82.80663657 72.09280763     6    250    0    0    0
H 919.83831575 -86.37156464 71.81832056     6    250    0    0    0
C 923.34941238 -84.60152180 72.55914565     2    250   254   255   256
H 924.42458683 -86.11850521 71.75492844     6    253    0    0    0
H 924.41734000 -82.95737542 71.89932385     6    253    0    0    0
C 923.29464881 -84.81941023 75.45789559     2    253   257   258   259
H 924.95123957 -83.90332855 76.24009186     6    256    0    0    0
H 921.67676320 -83.85283754 76.27047957     6    256    0    0    0
C 923.34281952 -87.51581955 76.41474220     2    256   260   261   262
H 921.78771354 -88.58119199 75.54845915     6    259    0    0    0
H 925.09955857 -88.38615918 75.83822985     6    259    0    0    0
C 922.92761893 -87.66147893 79.26896076     2    259   263   264   265
H 924.41926358 -86.60050279 80.30070832     6    262    0    0    0
H 921.05431529 -86.98438524 79.61963194     6    262    0    0    0
C 922.84337667 -90.42698101 80.29818347     2    262   266   267   268
H 921.61054043 -90.48411717 81.98145142     6    265    0    0    0
H 922.11782390 -91.72172697 78.82324623     6    265    0    0    0
C 925.29342688 -91.15543202 81.49822300     2    265   269   270   271
H 926.58525106 -91.02081811 79.93424764     6    268    0    0    0
H 926.20725353 -89.77142378 82.71075767     6    268    0    0    0
C 925.39015229 -93.83097696 82.60699973     2    268   272   273   274
H 924.27887769 -93.63727854 84.40584726     6    271    0    0    0
H 924.42347999 -95.22451810 81.41356842     6    271    0    0    0
C 928.06700508 -94.71521179 82.94154765     1    271   275   276   277
H 929.14489921 -94.73127820 81.27602646     6    274    0    0    0
H 928.12160359 -96.43458087 84.12242807     6    274    0    0    0
H 929.21073753 -93.27385382 83.95933198     6    274    0    0    0
H 943.83181772 -82.85871119 58.42699652     6     279    0    0    0
C 942.12471413 -84.03529019 58.30129195     1     278    280    281    282
H 942.45221375 -85.96136225 57.54517491     6     279    0    0    0
H 941.30497532 -84.36658723 60.23106001     6     279    0    0    0
C 939.80371585 -82.99353972 56.72600462     2     279    283    284    285
H 939.49590403 -80.92505157 57.44303729     6     282    0    0    0
H 940.13307278 -83.08252592 54.69147125     6     282    0    0    0
C 937.30111879 -84.41047369 57.20414635     2     282    286   287   288
H 937.40686904 -86.38327736 56.82111366     6     285    0    0    0
H 936.89589428 -84.14508635 59.21125939     6     285    0    0    0
C 935.08325331 -83.30588589 55.61961168     2     285   289   290   291
H 934.69032532 -81.35615292 56.30183962     6    288    0    0    0
H 935.66717261 -83.08472156 53.68946646     6    288    0    0    0
C 932.85421744 -84.99948659 55.66095012     2    288   292   293   294
H 933.56670049 -86.78855881 54.54770811     6    291    0    0    0
H 932.37148689 -85.50288792 57.53299057     6    291    0    0    0
C 930.72935595 -83.49263772 54.31231508     2    291   295   296   297
H 930.56659793 -81.73957335 55.36952329     6    294    0    0    0
H 931.42756781 -83.32307885 52.32852365     6    294    0    0    0
C 928.33057672 -85.10720406 54.51577767     2    294   298   299   300

   16   -1830.5152831209      9.53E-09 Convergence criterion met
 Total energy in the final basis set = -1828.22992551
 Total job time:  15.15s(wall), 27.16s(cpu)
        *  Thank you very much for using Q-Chem.  Have a nice day.  *

User input: 2 of 2

                  Welcome to Q-Chem
     A Quantum Leap Into The Future Of Chemistry

 Q-Chem 5.4 (devel), Q-Chem, Inc., Pleasanton, CA (2021)

 E. Epifanovsky,  A. T. B. Gilbert,  Xintian Feng,  Joonho Lee,  Yuezhi Mao,
 N. Mardirossian,  P. Pokhilko,  A. White,  M. Wormit,  M. P. Coons,
 A. L. Dempwolff,  Zhengting Gan,  D. Hait,  P. R. Horn,  L. D. Jacobson,
 I. Kaliman,  J. Kussmann,  A. W. Lange,  Ka Un Lao,  D. S. Levine,  Jie Liu,
 S. C. McKenzie,  A. F. Morrison,  K. Nanda,  F. Plasser,  D. R. Rehn,
 M. L. Vidal,  Zhi-Qiang You,  Ying Zhu,  B. Alam,  B. Albrecht,
 A. Aldossary,  E. Alguire,  J. H. Andersen,  D. Barton,  K. Begam,  A. Behn,
 Y. A. Bernard,  E. J. Berquist,  H. Burton,  A. Carreras,  K. Carter-Fenk,
 R. Chakraborty,  A. D. Chien,  K. D. Closser,  V. Cofer-Shabica,
 S. Dasgupta,  Jia Deng,  M. de Wergifosse,  M. Diedenhofen,  Hainam Do,
 S. Ehlert,  Po-Tung Fang,  S. Fatehi,  Qingguo Feng,  T. Friedhoff,
 J. Gayvert,  Qinghui Ge,  G. Gidofalvi,  M. Goldey,  J. Gomes,
 C. Gonzalez-Espinoza,  S. Gulania,  A. Gunina,  M. W. D. Hanson-Heine,
 P. H. P. Harbach,  A. W. Hauser,  M. F. Herbst,  M. Hernandez Vera,
 M. Hodecker,  Z. C. Holden,  S. Houck,  Xunkun Huang,  Kerwin Hui,
 B. C. Huynh,  M. Ivanov,  Hyunjun Ji,  Hanjie Jiang,  B. Kaduk,  S. Kaehler,
 K. Khistyaev,  Jaehoon Kim,  P. Klunzinger,  Z. Koczor-Benda,
 Joong Hoon Koh,  D. Kosenkov,  L. Koulias,  T. Kowalczyk,  C. M. Krauter,
 K. Kue,  A. Kunitsa,  T. Kus,  A. Landau,  K. V. Lawler,  D. Lefrancois,
 S. Lehtola,  Rain Li,  Yi-Pei Li,  Jiashu Liang,  M. Liebenthal,
 Hung-Hsuan Lin,  You-Sheng Lin,  Fenglai Liu,  Kuan-Yu Liu,
 M. Loipersberger,  A. Luenser,  A. Manjanath,  P. Manohar,  E. Mansoor,
 S. F. Manzer,  Shan-Ping Mao,  A. V. Marenich,  T. Markovich,  S. Mason,
 S. A. Maurer,  P. F. McLaughlin,  M. F. S. J. Menger,  J.-M. Mewes,
 S. A. Mewes,  P. Morgante,  J. W. Mullinax,  K. J. Oosterbaan,  G. Paran,
 Alexander C. Paul,  Suranjan K. Paul,  F. Pavosevic,  Zheng Pei,  S. Prager,
 E. I. Proynov,  E. Ramos,  B. Rana,  A. E. Rask,  A. Rettig,  R. M. Richard,
 F. Rob,  E. Rossomme,  T. Scheele,  M. Scheurer,  M. Schneider,
 N. Sergueev,  S. M. Sharada,  W. Skomorowski,  D. W. Small,  C. J. Stein,
 Yu-Chuan Su,  E. J. Sundstrom,  Zhen Tao,  J. Thirman,  T. Tsuchimochi,
 N. M. Tubman,  S. P. Veccham,  O. Vydrov,  J. Wenzel,  J. Witte,  A. Yamada,
 Kun Yao,  S. Yeganeh,  S. R. Yost,  A. Zech,  Igor Ying Zhang,  Xing Zhang,
 Yu Zhang,  D. Zuev,  A. Aspuru-Guzik,  A. T. Bell,  N. A. Besley,
 K. B. Bravaya,  B. R. Brooks,  D. Casanova,  Jeng-Da Chai,  S. Coriani,
 C. J. Cramer,  A. E. DePrince, III,  R. A. DiStasio Jr.,  A. Dreuw,
 B. D. Dunietz,  T. R. Furlani,  W. A. Goddard III,  S. Grimme,
 S. Hammes-Schiffer,  T. Head-Gordon,  W. J. Hehre,  Chao-Ping Hsu,
 T.-C. Jagau,  Yousung Jung,  A. Klamt,  Jing Kong,  D. S. Lambrecht,
 WanZhen Liang,  N. J. Mayhall,  C. W. McCurdy,  J. B. Neaton,
 C. Ochsenfeld,  J. A. Parkhill,  R. Peverati,  V. A. Rassolov,  Yihan Shao,
 L. V. Slipchenko,  T. Stauch,  R. P. Steele,  J. E. Subotnik,
 A. J. W. Thom,  A. Tkatchenko,  D. G. Truhlar,  T. Van Voorhis,
 T. A. Wesolowski,  K. B. Whaley,  H. L. Woodcock III,  P. M. Zimmerman,
 S. Faraji,  P. M. W. Gill,  M. Head-Gordon,  J. M. Herbert,  A. I. Krylov

 Additional authors for Version 5.4.1:
 S. Kotaru,  Shaozhi Li,  Xiangyuan Li,  F. Matz,  A. Molle,  Haisheng Ren,
 Yingli Su,  Hung-Yi Tsai,  C. Utku,  Fang Wang

 Contributors to earlier versions of Q-Chem not listed above:
 R. D. Adamson,  B. Austin,  R. Baer,  J. Baker,  G. J. O. Beran,
 K. Brandhorst,  S. T. Brown,  E. F. C. Byrd,  A. K. Chakraborty,
 G. K. L. Chan,  Chun-Min Chang,  Yunqing Chen,  C.-L. Cheng,
 Siu Hung Chien,  D. M. Chipman,  D. L. Crittenden,  H. Dachsel,
 R. J. Doerksen,  A. D. Dutoi,  R. G. Edgar,  J. Fosso-Tande,
 L. Fusti-Molnar,  D. Ghosh,  A. Ghysels,  A. Golubeva-Zadorozhnaya,
 J. Gonthier,  M. S. Gordon,  S. R. Gwaltney,  G. Hawkins,  J. E. Herr,
 A. Heyden,  S. Hirata,  E. G. Hohenstein,  G. Kedziora,  F. J. Keil,
 C. Kelley,  Jihan Kim,  R. A. King,  R. Z. Khaliullin,  P. P. Korambath,
 W. Kurlancheek,  A. Laurent,  A. M. Lee,  M. S. Lee,  S. V. Levchenko,
 Ching Yeh Lin,  D. Liotard,  E. Livshits,  R. C. Lochan,  I. Lotan,
 L. A. Martinez-Martinez,  P. E. Maslen,  N. Nair,  D. P. O'Neill,
 D. Neuhauser,  E. Neuscamman,  C. M. Oana,  R. Olivares-Amaya,  R. Olson,
 T. M. Perrine,  B. Peters,  P. A. Pieniazek,  A. Prociuk,  Y. M. Rhee,
 J. Ritchie,  M. A. Rohrdanz,  E. Rosta,  N. J. Russ,  H. F. Schaefer III,
 M. W. Schmidt,  N. E. Schultz,  S. Sharma,  N. Shenvi,  C. D. Sherrill,
 A. C. Simmonett,  A. Sodt,  T. Stein,  D. Stuck,  K. S. Thanthiriwatte,
 V. Vanovschi,  L. Vogt,  Tao Wang,  A. Warshel,  M. A. Watson,
 C. F. Williams,  Q. Wu,  X. Xu,  Jun Yang,  W. Zhang,  Yan Zhao

 Please cite Q-Chem as follows:
 Y. Shao et al., Mol. Phys. 113, 184-215 (2015)
 DOI: 10.1080/00268976.2014.952696

 Q-Chem 5.4.1 for Intel X86 EM64T Linux

 Parts of Q-Chem use Armadillo 9.900.5 (Nocturnal Misbehaviour).
 http://arma.sourceforge.net/

 Q-Chem begins on Wed Jun 22 08:05:40 2022

 Host: p09r16n04.grace.hpc.yale.internal
0

     Scratch files written to /home/tl686/scratch60/qchem_dev/scratch/qchem69903//
 Processing $rem in /home/tl686/qchem_dev/qchem/config/preferences:
 Processing $rem in /home/tl686/.qchemrc:
Applying user defined connections for MM calculations
The previous job contains 0 fragments, simply inherited here

 Checking the input file for inconsistencies... 	...done.

--------------------------------------------------------------
User input:
--------------------------------------------------------------

$molecule
READ
$end

$qm_atoms
1:11
$end

$force_field_params
NumAtomTypes 3
AtomType -1   0.0238     3.11   0.2868
AtomType -2   0.07124    3.30   0.6597
AtomType -3  -0.0760     3.09   0.1434
$end

$rem
     JOBTYPE  freq
     METHOD   bp86
     BASIS    def2-msvp
     MAX_SCF_CYCLES   800
     INPUT_BOHR TRUE
     SYM_IGNORE TRUE
     SCF_GUESS     read
     user_connect            true
     qm_mm_interface         ONIOM
     force_field             oplsaa
$end

--------------------------------------------------------------

    3   -1830.5152831210      8.78E-09 Convergence criterion met
 Total energy in the final basis set = -1828.22992551

                    Orbital Energies (a.u.)
 --------------------------------------------------------------

 Alpha MOs
 -- Occupied --
******** -29.6392 -25.5967 -25.5915 -25.5796 -18.8878 -18.8861 -18.8857
-18.8781 -18.8723 -10.0570 -10.0563 -10.0529 -10.0501 -10.0480  -3.3244
 -2.1564  -2.1467  -2.1204  -1.0665  -1.0580  -1.0507  -1.0320  -1.0229
 -0.5805  -0.5300  -0.5249  -0.5174  -0.5169  -0.4578  -0.4513  -0.4402
 -0.4345  -0.4328  -0.4297  -0.4248  -0.4184  -0.4074  -0.4065  -0.4028
 -0.4007  -0.3960  -0.3899  -0.3802  -0.2877  -0.2616  -0.2457  -0.2240

          Ground-State Mulliken Net Atomic Charges

     Atom                 Charge (a.u.)
  ----------------------------------------
      1 Fe                   -0.476070
      2 C                     0.210998
      3 C                     0.200607
      4 C                     0.203541
      5 C                     0.270744
      6 C                     0.212066
      7 O                    -0.119592
      8 O                    -0.114536
      9 O                    -0.095061
     10 O                    -0.135960
     11 O                    -0.156738
  ----------------------------------------
  Sum of atomic charges =     0.000000

                    Cartesian Multipole Moments
 -----------------------------------------------------------------
    Charge (ESU x 10^10)
                -0.0000
    Dipole Moment (Debye)
         X       0.4350686902      Y       0.2412953998      Z      -0.1211082484
       Tot       0.5120307051
    Quadrupole Moments (Debye-Ang)
        XX     357.9021     XY     106.4634     YY     -84.2299
        XZ     -44.4841     YZ      12.4783     ZZ     -78.4668

 Frequency:       -54.19                  62.63                  87.95
 Force Cnst:      0.0255                 0.0370                 0.0735
 Red. Mass:      14.7570                16.0296                16.1230
 IR Intens:        0.000                  0.000                  0.000
 Frequency:       116.33                 131.42                 153.38
 Force Cnst:      0.1324                 0.1594                 0.2320
 Red. Mass:      16.6030                15.6651                16.7394
 IR Intens:        0.000                  0.000                  0.000
 Frequency:       160.64                 341.47                 388.36
 Force Cnst:      0.2575                 0.8827                 1.1352
 Red. Mass:      16.9384                12.8481                12.7753
 IR Intens:        0.000                  0.000                  0.000
 Frequency:       393.44                 434.55                 438.10
 Force Cnst:      1.3745                 1.4869                 1.5919
 Red. Mass:      15.0712                13.3639                14.0772
 IR Intens:        0.000                  0.000                  0.000
 Frequency:       456.32                 476.31                 515.26
 Force Cnst:      1.6925                 2.0107                 2.2176
 Red. Mass:      13.7958                15.0427                14.1769
 IR Intens:        0.000                  0.000                  0.000
 Frequency:       520.75                 553.25                 570.20
 Force Cnst:      2.2669                 2.4378                 2.4576
 Red. Mass:      14.1881                13.5179                12.8294
 IR Intens:        0.000                  0.000                  0.000
 Frequency:       595.65                 656.71                 666.22
 Force Cnst:      2.7180                 4.0250                 4.3810
 Red. Mass:      13.0020                15.8404                16.7525
 IR Intens:        0.000                  0.000                  0.000
 Frequency:       685.63                1762.00                1809.40
 Force Cnst:      4.5270                24.2403                25.7040
 Red. Mass:      16.3447                13.2518                13.3255
 IR Intens:        0.000                  0.000                  0.000
 Frequency:      1931.40                2035.56                2123.15
 Force Cnst:     29.3162                32.4171                35.4134
 Red. Mass:      13.3387                13.2787                13.3338
 IR Intens:        0.000                  0.000                  0.000

 STANDARD THERMODYNAMIC QUANTITIES AT   298.15 K  AND     1.00 ATM

   This Molecule has  1 Imaginary Frequencies
   Zero point vibrational energy:       25.827 kcal/mol

   Atom    1 Element Fe Has Mass   55.93490
   Atom    2 Element C  Has Mass   12.00000
   Atom    3 Element C  Has Mass   12.00000
   Atom    4 Element C  Has Mass   12.00000
   Atom    5 Element C  Has Mass   12.00000
   Atom    6 Element C  Has Mass   12.00000
   Atom    7 Element O  Has Mass   15.99491
   Atom    8 Element O  Has Mass   15.99491
   Atom    9 Element O  Has Mass   15.99491
   Atom   10 Element O  Has Mass   15.99491
   Atom   11 Element O  Has Mass   15.99491
   Molecular Mass:   195.909450 amu
   Principal axes and moments of inertia in amu*Bohr^2:
                             1           2           3
    Eigenvalues --     1951.71093  2110.90062  2420.39198
          X               0.39913     0.91374    -0.07600
          Y               0.17826     0.00398     0.98398
          Z               0.89940    -0.40628    -0.16129
   Rotational Symmetry Number is   1
   The Molecule is an Asymmetric Top
   Translational Enthalpy:        0.889 kcal/mol
   Rotational Enthalpy:           0.889 kcal/mol
   Vibrational Enthalpy:         30.595 kcal/mol
   gas constant (RT):             0.592 kcal/mol
   Translational Entropy:        41.722  cal/mol.K
   Rotational Entropy:           30.678  cal/mol.K
   Vibrational Entropy:          29.480  cal/mol.K

   Total Enthalpy:               32.965 kcal/mol
   Total Entropy:               101.881  cal/mol.K

 Total job time:  122.33s(wall), 241.23s(cpu)
        *  Thank you very much for using Q-Chem.  Have a nice day.  *
