 Q-Chem 5.4 (devel), Q-Chem, Inc., Pleasanton, CA (2021)
 Q-Chem 5.4.1 for Intel X86 EM64T Linux

User input:
--------------------------------------------------------------
$molecule
0   1
Fe -634.58890141 -49.20990107 -27.49928860    -1  0   0   0   0
C -634.32640047 -52.46113976 -28.34430416    -2  0   0   0   0
C -634.89308194 -45.77884585 -27.12835521    -2  0   0   0   0
C -633.20310223 -48.93285445 -30.62094505    -2  0   0   0   0
C -637.72808830 -49.17032829 -26.38388206    -2  0   0   0   0
C -632.34669065 -49.57456431 -24.93081719    -2  0   0   0   0
O -633.75489510 -54.47370801 -29.02798889    -3  0   0   0   0
O -634.94280526 -43.60352916 -26.96021568    -3  0   0   0   0
O -632.60117936 -48.67851015 -32.75922180    -3  0   0   0   0
O -639.88436486 -49.39970079 -25.67224065    -3  0   0   0   0
O -631.10611951 -50.05443398 -23.21044847    -3  0   0   0   0
H -644.27160169 -68.18958987 -48.41760201      6     13    0    0    0
C -643.30840349 -69.67940015 -47.25862514     1     12    14    15    16
H -643.45936698 -71.26004061 -48.52689056     6     13    0    0    0
H -641.43317033 -68.95345189 -46.95718655     6     13    0    0    0
C -644.73823128 -70.08612297 -44.74063876     2     13    17    18    19
H -646.70106177 -70.58843462 -45.02648646     6     16    0    0    0
H -643.75126257 -71.49397046 -43.67659074     6     16    0    0    0
C -644.84555969 -67.59804976 -43.22498152     2     16    20   21   22
H -642.89054062 -67.09186769 -42.61351841     6     19    0    0    0
H -645.89604406 -66.17879019 -44.31188752     6     19    0    0    0
C -646.62671607 -68.18293398 -40.93608227     2     19   23   24   25
H -648.41152613 -68.67252233 -41.80179019     6    22    0    0    0
H -646.00923351 -69.80226019 -39.90613663     6    22    0    0    0
C -647.05623430 -65.88122250 -39.24235945     2    22   26   27   28
H -645.33410066 -65.43858919 -38.21961883     6    25    0    0    0
H -647.50434106 -64.12576585 -40.28230859     6    25    0    0    0
C -648.85853547 -66.57569153 -37.12429898     2    25   29   30   31
H -650.90151047 -66.96826455 -37.79475085     6    28    0    0    0
H -648.46650844 -68.39011952 -36.32777725     6    28    0    0    0
C -649.09007987 -64.47186099 -35.14902403     2    28   32   33   34
H -647.27123393 -63.91596127 -34.40220953     6    31    0    0    0
H -649.94005191 -62.88235943 -36.14277043     6    31    0    0    0
C -650.55907454 -65.38471492 -32.88909859     2    31   35   36   37
H -652.47603368 -65.89568875 -33.40443026     6    34    0    0    0
H -649.83937551 -67.03497314 -31.93684581     6    34    0    0    0
C -650.83760253 -63.29105696 -30.76170150     2    34   38   39   40
H -649.08665742 -62.91471460 -29.71755611     6    37    0    0    0
H -651.21276730 -61.41468012 -31.62583815     6    37    0    0    0
C -652.76843865 -64.03459734 -28.80578954     2    37   41   42   43
H -654.51108742 -64.53606273 -29.72233702     6    40    0    0    0
H -651.90822881 -65.77622320 -28.08565060     6    40    0    0    0
C -652.81199153 -61.99341331 -26.61717677     2    40   44   45   46
H -650.87438148 -61.47774681 -26.13885477     6    43    0    0    0
H -653.54727039 -60.31322835 -27.35962020     6    43    0    0    0
C -654.08045784 -63.08305833 -24.26709393     1    43   47   48   49
H -656.13018592 -63.50537823 -24.26845172     6    46    0    0    0
H -653.86919894 -61.87200189 -22.64248642     6    46    0    0    0
H -653.07668323 -64.85851610 -23.77005472     6    46    0    0    0
H -638.26915644 -57.75862986 -27.69649208     6     51    0    0    0
C -639.21884261 -56.44091449 -26.32006843     1     50    52    53    54
H -637.71782853 -55.79092350 -25.06455824     6     51    0    0    0
H -639.89309882 -54.87760251 -27.49117385     6     51    0    0    0
C -641.27227678 -57.83647450 -24.87294037     2     51    55    56    57
H -642.19541559 -58.95106262 -26.22441282     6     54    0    0    0
H -640.51214285 -59.03092040 -23.38378161     6     54    0    0    0
C -643.18351960 -56.16266105 -23.39024379     2     54    58   59   60
H -642.11963364 -55.49429112 -21.75635413     6     57    0    0    0
H -643.70746072 -54.47761833 -24.59984411     6     57    0    0    0
C -645.58090316 -57.42182698 -22.49376859     2     57   61   62   63
H -646.84741946 -58.06254962 -23.95620810     6    60    0    0    0
H -645.00804971 -59.10947560 -21.63881568     6    60    0    0    0
C -647.34859113 -55.70232398 -20.88748233     2    60   64   65   66
H -646.27014438 -54.78462122 -19.31250800     6    63    0    0    0
H -647.94668451 -54.21559302 -22.17392796     6    63    0    0    0
C -649.68374550 -56.98151940 -19.91713812     2    63   67   68   69
H -650.88756538 -55.55367473 -19.17508604     6    66    0    0    0
H -650.42290571 -57.92239174 -21.48330198     6    66    0    0    0
C -649.18244254 -58.86553003 -17.66999949     2    66   70   71   72
H -647.30542623 -59.80745865 -17.91214485     6    69    0    0    0
H -649.06344796 -57.58108899 -16.01373867     6    69    0    0    0
C -651.28856961 -60.88123589 -17.21134234     2    69   73   74   75
H -653.03717920 -59.88419906 -17.46851505     6    72    0    0    0
H -651.03049869 -62.22984220 -18.78964824     6    72    0    0    0
C -651.10004743 -62.16869102 -14.74300429     2    72   76   77   78
H -649.22688224 -63.10813440 -14.54354483     6    75    0    0    0
H -651.34386304 -60.84211800 -13.16018559     6    75    0    0    0
C -653.02023819 -64.46518681 -14.29875540     2    75   79   80   81
H -654.95056650 -63.69655074 -14.23435918     6    78    0    0    0
H -653.01134851 -65.64269100 -16.02098700     6    78    0    0    0
C -652.39788081 -66.10345790 -12.00886907     2    78   82   83   84
H -650.56111119 -66.79197153 -12.33368404     6    81    0    0    0
H -652.16420636 -64.85131295 -10.37130665     6    81    0    0    0
C -654.47911643 -67.97679571 -11.33105900     1    81   85   86   87
H -654.42819127 -69.18303201 -9.65801128     6    84    0    0    0
H -654.56245566 -69.18373158 -12.97606181     6    84    0    0    0
H -656.23558104 -66.84306794 -11.26369712     6    84    0    0    0
H -658.80379540 -44.72305816 -49.57267375     6     89    0    0    0
C -660.26760061 -46.24896224 -49.55941375     1     88    90    91    92
H -660.80008544 -45.91598820 -47.60247676     6     89    0    0    0
H -661.77575694 -45.88720771 -50.92943068     6     89    0    0    0
C -659.19020655 -48.88809027 -49.54446645     2     89    93    94    95
H -658.33265747 -49.13749850 -51.42534594     6     92    0    0    0
H -657.63757137 -49.04824897 -48.17884446     6     92    0    0    0
C -661.41548382 -50.90134675 -49.08717050     2     92    96   97   98
H -662.30578378 -50.81590830 -47.18172792     6     95    0    0    0
H -663.05674106 -50.41107474 -50.30968017     6     95    0    0    0
C -660.73306767 -53.66867469 -49.81753351     2     95   99   100   101
H -660.83983984 -53.99380538 -51.89217575     6    98    0    0    0
H -658.81539307 -54.37987263 -49.32354871     6    98    0    0    0
C -662.68188856 -55.57131070 -48.73560017     2    98   102   103   104
H -664.62394572 -54.67207554 -48.84544687     6    101    0    0    0
H -662.42933973 -57.20157356 -49.99652936     6    101    0    0    0
C -662.16270350 -56.50419996 -46.00087820     2    101   105   106   107
H -660.33682594 -57.13951244 -45.95933920     6    104    0    0    0
H -662.19761031 -54.89839254 -44.82778372     6    104    0    0    0
C -663.79755709 -58.91429820 -45.24199218     2    104   108   109   110
H -665.39390413 -58.15095997 -44.15929557     6    107    0    0    0
H -664.64676616 -59.96216877 -46.82396967     6    107    0    0    0
C -662.60068288 -60.77207548 -43.37708695     2    107   111   112   113
H -660.86157120 -61.45451554 -44.04322185     6    110    0    0    0
H -661.83113545 -59.98387279 -41.71794231     6    110    0    0    0
C -664.16899000 -63.08558639 -42.74977157     2    110   114   115   116
H -665.78053338 -62.53696706 -41.60667841     6    113    0    0    0
H -665.15055177 -63.76201611 -44.49969255     6    113    0    0    0
C -662.82441172 -65.31225153 -41.39830369     2    113   117   118   119
H -661.53219017 -66.32508216 -42.64935006     6    116    0    0    0
H -661.59713847 -64.49828084 -39.92592819     6    116    0    0    0
C -664.44769193 -67.38159390 -40.19612716     2    116   120   121   122
H -665.75662087 -66.48685516 -38.89850663     6    119    0    0    0
H -665.48728626 -68.22865502 -41.74677603     6    119    0    0    0
C -663.13579880 -69.56546898 -38.85147778     1    119   123   124   125
H -664.24815627 -71.23430430 -38.90077786     6    122    0    0    0
H -662.74260360 -69.02829219 -36.84863500     6    122    0    0    0
H -661.23351372 -70.21424920 -39.66388120     6    122    0    0    0
H -653.57303705 -34.42265316 -51.39804457     6     127    0    0    0
C -652.27276931 -34.19731974 -49.89345162     1     126    128    129    130
H -651.32021465 -32.37764987 -49.92239726     6     127    0    0    0
H -653.45308462 -34.29787473 -48.03124290     6     127    0    0    0
C -650.17925574 -36.10048261 -49.95722337     2     127    131    132    133
H -650.59965035 -37.95879977 -49.06925310     6     130    0    0    0
H -649.36890130 -36.16156709 -51.87132624     6     130    0    0    0
C -648.00675738 -35.41955896 -48.22656457     2     130    134   135   136
H -647.23941241 -33.54249853 -48.78148702     6     133    0    0    0
H -648.62596475 -35.09081014 -46.31946198     6     133    0    0    0
C -645.86714802 -37.44708762 -48.12250245     2     133   137   138   139
H -646.77545995 -39.15360061 -47.42395535     6    136    0    0    0
H -645.06288178 -38.04538225 -50.04093758     6    136    0    0    0
C -643.94271301 -36.45767726 -46.28559080     2    136   140   141   142
H -642.99799862 -34.86838853 -47.23389756     6    139    0    0    0
H -644.67532731 -35.94804363 -44.35617539     6    139    0    0    0
C -641.79481278 -38.23030411 -45.74029231     2    139   143   144   145
H -642.76268991 -39.87281478 -44.98090434     6    142    0    0    0
H -640.87974321 -38.92882042 -47.54903123     6    142    0    0    0
C -639.95795231 -37.16717480 -43.92523451     2    142   146   147   148
H -639.45677137 -35.26363890 -44.64133805     6    145    0    0    0
H -641.23155442 -36.74323279 -42.22526128     6    145    0    0    0
C -637.73416711 -38.98205420 -43.27641009     2    145   149   150   151
H -638.55890199 -40.62312121 -42.41551781     6    148    0    0    0
H -636.59551271 -39.49880489 -44.98848870     6    148    0    0    0
C -635.78191140 -38.06908136 -41.21248686     2    148   152   153   154
H -634.89032751 -36.33857024 -41.75632645     6    151    0    0    0
H -636.85651361 -37.88068401 -39.32448602     6    151    0    0    0
C -633.72440047 -40.25025305 -40.65685020     2    151   155   156   157
H -632.67489169 -39.79712511 -38.87417353     6    154    0    0    0
H -634.71776015 -41.97032380 -40.09857567     6    154    0    0    0
C -631.90254481 -40.56885758 -42.86440509     2    154   158   159   160
H -633.11662655 -41.31841349 -44.40389823     6    157    0    0    0
H -631.16606599 -38.90522463 -43.82081267     6    157    0    0    0
C -629.70392337 -42.44803538 -42.21266224     1    157   161   162   163
H -628.40179665 -41.96207593 -40.73924813     6    160    0    0    0
H -628.52997734 -42.83621549 -43.88525702     6    160    0    0    0
H -630.45247775 -44.39324339 -41.93257329     6    160    0    0    0
H -661.55974859 -41.86168000 -47.24087643     6     165    0    0    0
C -662.23569387 -40.63209398 -45.63180028     1     164    166    167    168
H -664.35261147 -40.33870202 -45.75698076     6     165    0    0    0
H -661.84616589 -41.95031733 -44.04422074     6     165    0    0    0
C -660.92387301 -38.11501932 -45.62535237     2     165    169    170    171
H -658.91712808 -38.33710049 -45.81171221     6     168    0    0    0
H -661.43242853 -37.30329720 -47.38007253     6     168    0    0    0
C -661.80818288 -36.29312191 -43.71459713     2     168    172   173   174
H -663.67276111 -35.64649772 -44.10765512     6     171    0    0    0
H -661.86239208 -37.15210447 -41.90883966     6     171    0    0    0
C -660.22341041 -33.82739269 -43.72524430     2     171   175   176   177
H -658.14148599 -34.17625712 -43.91739593     6    174    0    0    0
H -660.67111017 -32.82981706 -45.57068212     6    174    0    0    0
C -660.49848820 -32.18356008 -41.26916558     2    174   178   179   180
H -662.43797078 -31.47809649 -40.88117295     6    177    0    0    0
H -659.82614344 -33.36366443 -39.75737480     6    177    0    0    0
C -659.01392693 -29.73093278 -41.56620282     2    177   181   182   183
H -657.17410320 -30.48633798 -41.95601285     6    180    0    0    0
H -659.49597896 -28.58689115 -43.25052814     6    180    0    0    0
C -658.89976899 -28.17878698 -39.22245954     2    180   184   185   186
H -660.48002232 -26.85775979 -39.45372943     6    183    0    0    0
H -659.11250349 -29.31559850 -37.44852161     6    183    0    0    0
C -656.49582968 -26.59544527 -39.01306074     2    183   187   188   189
H -654.72459827 -27.62449604 -38.58342282     6    186    0    0    0
H -656.09443121 -25.62624529 -40.77700134     6    186    0    0    0
C -656.88992331 -24.46146159 -37.09114311     2    186   190   191   192
H -658.71628284 -23.55343287 -37.24572315     6    189    0    0    0
H -656.75962490 -25.22695455 -35.16493457     6    189    0    0    0
C -654.88783088 -22.47481090 -37.47704997     2    189   193   194   195
H -652.98914015 -23.28330130 -37.28375924     6    192    0    0    0
H -654.76992333 -21.90191262 -39.52318238     6    192    0    0    0
C -655.21194311 -20.13604657 -35.76994088     2    192   196   197   198
H -656.52596273 -18.99189616 -36.71748746     6    195    0    0    0
H -655.92817195 -20.55453098 -33.86378582     6    195    0    0    0
C -652.77226448 -18.59394055 -35.61287327     1    195   199   200   201
H -652.76459582 -17.04715441 -34.33804020     6    198    0    0    0
H -651.79565642 -17.90601905 -37.12332767     6    198    0    0    0
H -651.42038246 -20.00701722 -34.70927325     6    198    0    0    0
H -662.85595256 -42.28570976 -18.52816172     6     203    0    0    0
C -662.26612878 -41.84415100 -20.52199807     1     202    204    205    206
H -661.30475413 -43.35056436 -21.41703060     6     203    0    0    0
H -664.09183570 -41.63241902 -21.48073314     6     203    0    0    0
C -660.84646029 -39.33458785 -20.50912727     2     203    207    208    209
H -659.03221613 -39.68758029 -19.51716138     6     206    0    0    0
H -660.37418984 -38.92597671 -22.56569542     6     206    0    0    0
C -662.36869779 -37.10649636 -19.17256839     2     206    210   211   212
H -661.65548294 -35.22873098 -19.74073828     6     209    0    0    0
H -664.30285095 -37.01995303 -19.66814996     6     209    0    0    0
C -661.86884319 -37.33541266 -16.37768364     2     209   213   214   215
H -662.52009215 -39.17246514 -15.66743840     6    212    0    0    0
H -659.76729019 -37.41917317 -16.12453636     6    212    0    0    0
C -662.90410889 -35.09116758 -14.80352601     2    212   216   217   218
H -662.02565720 -33.11605119 -15.19513920     6    215    0    0    0
H -665.04426671 -34.77954421 -15.05383899     6    215    0    0    0
C -662.42889185 -35.42452441 -12.08208120     2    215   219   220   221
H -663.56615715 -36.98043078 -11.38537412     6    218    0    0    0
H -660.44604819 -35.85246239 -11.78040536     6    218    0    0    0
C -663.06503780 -33.22445438 -10.35839265     2    218   222   223   224
H -661.75513913 -31.64804809 -10.48549573     6    221    0    0    0
H -664.94005161 -32.42374017 -11.02402641     6    221    0    0    0
C -663.25337560 -33.87717783 -7.58736037     2    221   225   226   227
H -664.79208011 -35.29252326 -7.47190047     6    224    0    0    0
H -661.49153793 -34.81427030 -6.93705919     6    224    0    0    0
C -664.12949263 -31.70073410 -5.72705041     2    224   228   229   230
H -662.69553629 -30.17987082 -6.03718494     6    227    0    0    0
H -665.96125475 -30.97288022 -6.28480760     6    227    0    0    0
C -664.33023222 -32.45066874 -2.86790941     2    227   231   232   233
H -665.61604997 -33.96084354 -2.95673481     6    230    0    0    0
H -662.74601263 -33.33882001 -2.14410254     6    230    0    0    0
C -665.92910299 -30.46897803 -1.31506182     2    230   234   235   236
H -664.98440760 -28.54397837 -1.01983591     6    233    0    0    0
H -667.74103390 -29.95204426 -2.23757894     6    233    0    0    0
C -666.81263026 -31.49341331 1.17622256     1    233   237   238   239
H -667.77574324 -29.89354089 2.20812390     6    236    0    0    0
H -665.07692656 -32.00724196 2.13387423     6    236    0    0    0
H -668.19344740 -33.05751387 0.91479018     6    236    0    0    0
H -666.26279473 -63.76122737 -16.86373896     6     241    0    0    0
C -666.05321603 -65.74626324 -17.47520978     1     240    242    243    244
H -667.99087265 -66.74022620 -17.29223320     6     241    0    0    0
H -665.59437588 -65.86719387 -19.57465522     6     241    0    0    0
C -664.06071113 -67.30967384 -15.95642410     2     241    245    246    247
H -664.53236473 -67.55652441 -13.98645846     6     244    0    0    0
H -663.94457858 -69.13049712 -16.69112217     6     244    0    0    0
C -661.40126370 -66.12680627 -16.25625418     2     244    248   249   250
H -661.22191580 -65.15080543 -18.00644168     6     247    0    0    0
H -661.03683914 -64.78077205 -14.68184806     6     247    0    0    0
C -659.27012290 -67.96980504 -15.83429152     2     247   251   252   253
H -657.45237782 -67.01203976 -15.99653500     6    250    0    0    0
H -659.56509177 -69.11066020 -14.06078718     6    250    0    0    0
C -658.97994589 -69.78310796 -18.08758430     2    250   254   255   256
H -660.64586451 -70.80752007 -18.29436838     6    253    0    0    0
H -658.72884763 -68.78314046 -19.84312654     6    253    0    0    0
C -656.52097230 -71.48071926 -18.01879590     2    253   257   258   259
H -656.35616953 -72.64690735 -19.66654560     6    256    0    0    0
H -654.82464776 -70.28360241 -18.01287631     6    256    0    0    0
C -656.29404336 -73.45704924 -15.80396003     2    256   260   261   262
H -656.64712495 -72.52405531 -14.01027783     6    259    0    0    0
H -657.94982773 -74.64019984 -15.90081381     6    259    0    0    0
C -653.90211630 -75.14931259 -15.66499067     2    259   263   264   265
H -653.87840487 -76.52834097 -17.11477396     6    262    0    0    0
H -652.15833822 -74.22598661 -16.31024166     6    262    0    0    0
C -653.61727664 -76.29838703 -13.06122604     2    262   266   267   268
H -653.79507142 -75.07544663 -11.41660754     6    265    0    0    0
H -654.85480177 -77.90459281 -12.86957117     6    265    0    0    0
C -650.87990986 -77.36309699 -12.94957217     2    265   269   270   271
H -650.65719824 -78.42927401 -14.74029269     6    268    0    0    0
H -649.44288261 -75.81385263 -13.09250812     6    268    0    0    0
C -650.25171600 -78.98246235 -10.65826479     2    268   272   273   274
H -650.41049233 -77.61848360 -9.17320124     6    271    0    0    0
H -651.81835160 -80.31690956 -10.62170395     6    271    0    0    0
C -647.65835933 -80.15592946 -10.79726005     1    271   275   276   277
H -647.51471612 -81.63336833 -12.26316907     6    274    0    0    0
H -647.27509866 -80.85652719 -9.04622691     6    274    0    0    0
H -646.20844553 -78.67905867 -11.18399903     6    274    0    0    0
H -665.51143257 -46.38453679 -26.51748908     6     279    0    0    0
C -665.92349416 -47.91080925 -25.21184581     1     278    280    281    282
H -667.89194458 -48.24300476 -24.92638001     6     279    0    0    0
H -665.12645040 -49.62521173 -25.88476502     6     279    0    0    0
C -664.96041087 -47.35127647 -22.51839432     2     279    283    284    285
H -663.01179538 -47.48039969 -22.65851950     6     282    0    0    0
H -665.71951125 -45.59683918 -21.72658146     6     282    0    0    0
C -665.59317408 -49.79176955 -21.02766216     2     282    286   287   288
H -667.60655906 -49.62575237 -20.66641328     6     285    0    0    0
H -665.00797346 -51.49693704 -21.91964112     6     285    0    0    0
C -664.02825845 -49.55161527 -18.68999810     2     285   289   290   291
H -662.00952850 -49.80825514 -19.14088636     6    288    0    0    0
H -664.05557638 -47.77689425 -17.78310530     6    288    0    0    0
C -664.97538794 -51.52475669 -16.59245345     2    288   292   293   294
H -667.14199294 -51.43574876 -16.29065082     6    291    0    0    0
H -664.61872004 -53.46185153 -17.32660614     6    291    0    0    0
C -663.43500877 -51.21278657 -14.15991894     2    291   295   296   297
H -661.52320367 -51.62880424 -14.66135400     6    294    0    0    0
H -663.35341427 -49.28387990 -13.55465695     6    294    0    0    0
C -664.29243745 -52.78316843 -11.84238406     2    294   298   299   300

   17   -1830.5153822421      3.76E-09 Convergence criterion met
 Total energy in the final basis set = -1828.20604309

                    Orbital Energies (a.u.)
 --------------------------------------------------------------

 Alpha MOs
 -- Occupied --
******** -29.6387 -25.5974 -25.5882 -25.5807 -18.8950 -18.8830 -18.8820
-18.8795 -18.8652 -10.0625 -10.0537 -10.0505 -10.0443 -10.0415  -3.3240
 -2.1584  -2.1399  -2.1241  -1.0719  -1.0612  -1.0569  -1.0415  -1.0156
 -0.5811  -0.5360  -0.5219  -0.5152  -0.5144  -0.4595  -0.4477  -0.4436
 -0.4414  -0.4362  -0.4277  -0.4251  -0.4213  -0.4129  -0.4124  -0.4060
 -0.4000  -0.3946  -0.3887  -0.3705  -0.2817  -0.2723  -0.2423  -0.2219

          Ground-State Mulliken Net Atomic Charges

     Atom                 Charge (a.u.)
  ----------------------------------------
      1 Fe                   -0.465255
      2 C                     0.188523
      3 C                     0.210420
      4 C                     0.209818
      5 C                     0.205931
      6 C                     0.243489
      7 O                    -0.114706
      8 O                    -0.093188
      9 O                    -0.125678
     10 O                    -0.161475
     11 O                    -0.097878
  ----------------------------------------
  Sum of atomic charges =     0.000000

                    Cartesian Multipole Moments
 -----------------------------------------------------------------
    Charge (ESU x 10^10)
                -0.0000
    Dipole Moment (Debye)
         X       0.5950722257      Y       0.4293107335      Z       0.1654125956
       Tot       0.7521834793
    Quadrupole Moments (Debye-Ang)
        XX    -470.2864     XY    -159.3883     YY     -90.7730
        XZ     -63.3447     YZ     -10.2897     ZZ     -75.1923

 Total job time:  30.24s(wall), 26.49s(cpu)
        *  Thank you very much for using Q-Chem.  Have a nice day.  *
