 Q-Chem 5.4 (devel), Q-Chem, Inc., Pleasanton, CA (2021)
 Q-Chem 5.4.1 for Intel X86 EM64T Linux

User input:
--------------------------------------------------------------
$molecule
0   1
 Fe 1019.79862533 26.56108982 50.96319390    -1  0   0   0   0
C 1018.55587798 28.01091190 48.17334356    -2  0   0   0   0
C 1021.98429512 27.24780725 53.53582060    -2  0   0   0   0
C 1018.39921651 23.44996057 51.23044346    -2  0   0   0   0
C 1022.73264529 25.84068519 49.25069355    -2  0   0   0   0
C 1017.39130864 28.53251822 52.45761800    -2  0   0   0   0
O 1017.94002647 28.80823498 46.27955045    -3  0   0   0   0
O 1023.32912664 27.90727711 55.15131119    -3  0   0   0   0
O 1017.17452199 21.64761626 51.49195919    -3  0   0   0   0
O 1024.69585456 25.85639966 48.23701488    -3  0   0   0   0
O 1015.50225045 29.82955920 53.03147969    -3  0   0   0   0
H 1017.52374054 21.18156063 24.16386432      6     13    0    0    0
C 1017.54546408 23.16991739 24.51655047     1     12    14    15    16
H 1016.20193530 23.89414680 23.23216409     6     13    0    0    0
H 1016.71468839 23.29261140 26.41800415     6     13    0    0    0
C 1020.11952001 24.32248124 24.21120984     2     13    17    18    19
H 1020.96623142 23.46296371 22.55256747     6     16    0    0    0
H 1020.12159189 26.32176624 23.83240110     6     16    0    0    0
C 1021.78293322 24.02303490 26.57066450     2     16    20   21   22
H 1020.90459019 25.17135182 28.07075878     6     19    0    0    0
H 1021.65841666 21.94225886 27.18774528     6     19    0    0    0
C 1024.51862494 24.84571628 26.24799960     2     19   23   24   25
H 1025.75993490 23.57601584 24.96104693     6    22    0    0    0
H 1024.76969626 26.82755699 25.36182201     6    22    0    0    0
C 1025.76343106 24.78748636 28.78384096     2    22   26   27   28
H 1024.77601935 26.07418610 30.04858287     6    25    0    0    0
H 1025.76341666 22.92647613 29.62963464     6    25    0    0    0
C 1028.54012028 25.57366948 28.57248428     2    25   29   30   31
H 1029.45226019 24.22589806 27.40623929     6    28    0    0    0
H 1028.53156610 27.39835623 27.59108335     6    28    0    0    0
C 1029.78524159 25.88364174 31.08336326     2    28   32   33   34
H 1028.84393518 27.35549060 32.14846422     6    31    0    0    0
H 1029.45127576 24.08566978 32.08074841     6    31    0    0    0
C 1032.58714008 26.31610311 30.79941173     2    31   35   36   37
H 1033.49688425 24.58874154 30.03738835     6    34    0    0    0
H 1032.97786928 27.82134371 29.43528231     6    34    0    0    0
C 1033.87559315 27.20960451 33.34278444     2    34   38   39   40
H 1033.30195406 29.18162957 33.77411581     6    37    0    0    0
H 1033.12670272 25.98909392 34.82039158     6    37    0    0    0
C 1036.74445699 27.12142987 33.44299447     2    37   41   42   43
H 1037.34122553 25.18198916 33.14601655     6    40    0    0    0
H 1037.48531915 28.31615566 31.98767925     6    40    0    0    0
C 1038.00367538 28.22720944 35.62132384     2    40   44   45   46
H 1037.25620447 30.16900998 35.91407994     6    43    0    0    0
H 1037.55135385 26.95574955 37.26664381     6    43    0    0    0
C 1040.99076302 28.28951396 35.60428939     1    43   47   48   49
H 1041.70503132 26.32826063 35.83405281     6    46    0    0    0
H 1041.74248130 29.42190329 37.12344875     6    46    0    0    0
H 1041.71974071 29.01870872 33.84286866     6    46    0    0    0
H 1022.22697290 31.53414618 46.33232884     6     51    0    0    0
C 1023.98007527 31.90315869 45.60122913     1     50    52    53    54
H 1023.74638065 33.85525039 44.76337139     6     51    0    0    0
H 1025.38559462 31.62458281 47.02090227     6     51    0    0    0
C 1024.43652690 30.04870966 43.34810236     2     51    55    56    57
H 1023.82458231 28.15670463 43.91039198     6     54    0    0    0
H 1023.21950629 30.80320664 41.87335469     6     54    0    0    0
C 1027.31623279 29.72370142 42.46787471     2     54    58   59   60
H 1028.16917649 28.95520790 44.25832886     6     57    0    0    0
H 1027.65713639 28.19021564 41.07756184     6     57    0    0    0
C 1028.60805960 32.24092880 41.61429784     2     57   61   62   63
H 1027.35374317 33.30071781 40.31490815     6    60    0    0    0
H 1028.70703480 33.22955683 43.32449801     6    60    0    0    0
C 1031.30408721 31.63351806 40.53849731     2    60   64   65   66
H 1032.68673972 31.21266616 42.07999623     6    63    0    0    0
H 1031.27750603 29.91623159 39.43007155     6    63    0    0    0
C 1032.53864712 33.64909912 38.90963611     2    63   67   68   69
H 1034.12603068 32.76482002 37.93052257     6    66    0    0    0
H 1031.12317675 34.42516025 37.45470873     6    66    0    0    0
C 1033.49583108 35.95171937 40.42598279     2    66   70   71   72
H 1031.97819855 36.75478734 41.54638920     6    69    0    0    0
H 1035.05460824 35.24841184 41.62466983     6    69    0    0    0
C 1034.57475814 37.86599902 38.56580144     2    69   73   74   75
H 1036.01844569 37.10162666 37.22335954     6    72    0    0    0
H 1032.94791824 38.34725880 37.44458458     6    72    0    0    0
C 1035.61601451 40.06898229 40.01742704     2    72   76   77   78
H 1034.17970030 41.19426385 41.08544005     6    75    0    0    0
H 1036.60798086 39.30222848 41.58675590     6    75    0    0    0
C 1037.28207616 42.05188091 38.54363081     2    75   79   80   81
H 1039.03317452 41.17208737 38.01063517     6    78    0    0    0
H 1036.36334255 42.93000412 36.98631400     6    78    0    0    0
C 1037.85022241 44.08420765 40.55668327     2    78   82   83   84
H 1036.24681079 44.92679695 41.54621398     6    81    0    0    0
H 1038.64497620 43.04976276 42.10324160     6    81    0    0    0
C 1039.61482712 46.18198869 39.68014785     1    81   85   86   87
H 1039.89851263 47.66817630 40.79219411     6    84    0    0    0
H 1038.75601821 47.05198679 37.95560952     6    84    0    0    0
H 1041.45791300 45.19632879 39.20020795     6    84    0    0    0
H 1042.31030615 -3.76792638 36.46246627     6     89    0    0    0
C 1043.57722171 -2.38703458 35.58793189     1     88    90    91    92
H 1044.77198033 -1.32836885 36.82427619     6     89    0    0    0
H 1044.80452714 -3.49371019 34.44796823     6     89    0    0    0
C 1042.17121750 -0.38515038 33.77662589     2     89    93    94    95
H 1041.00346396 -1.44595971 32.32262672     6     92    0    0    0
H 1040.50102247 0.30507613 34.76605084     6     92    0    0    0
C 1043.76192993 1.56018455 32.52015467     2     92    96   97   98
H 1045.01270051 2.53081554 33.81092491     6     95    0    0    0
H 1045.04661171 0.54400721 31.18548168     6     95    0    0    0
C 1041.92343859 3.26503377 30.90538179     2     95   99   100   101
H 1040.92126511 1.80528427 29.72539671     6    98    0    0    0
H 1040.49822541 4.23075830 31.88801459     6    98    0    0    0
C 1043.45032751 4.86902876 29.01565028     2    98   102   103   104
H 1045.02256016 5.76488558 30.06080158     6    101    0    0    0
H 1044.25819588 3.51083015 27.55129470     6    101    0    0    0
C 1042.00590047 6.89186750 27.44948911     2    101   105   106   107
H 1040.84689992 6.06808999 25.85242782     6    104    0    0    0
H 1040.57993332 7.88222219 28.55880083     6    104    0    0    0
C 1043.73300111 9.17126817 26.29636990     2    104   108   109   110
H 1044.54181581 9.93429941 27.88994572     6    107    0    0    0
H 1045.19591259 8.73691730 24.99667909     6    107    0    0    0
C 1042.18822368 11.42923405 25.20750946     2    107   111   112   113
H 1041.39472136 10.90589943 23.33770320     6    110    0    0    0
H 1040.69069928 12.27759012 26.37340695     6    110    0    0    0
C 1043.96982846 13.60357687 24.53427372     2    110   114   115   116
H 1045.02956643 14.03472723 26.27752972     6    113    0    0    0
H 1045.50136209 12.94149528 23.28998026     6    113    0    0    0
C 1042.68178467 16.07996780 23.62102683     2    113   117   118   119
H 1042.94603119 16.14304113 21.55057914     6    116    0    0    0
H 1040.66814770 16.24717393 24.01938554     6    116    0    0    0
C 1044.05066733 18.57956688 24.46115283     2    116   120   121   122
H 1044.22322132 18.54421316 26.52684503     6    119    0    0    0
H 1046.06619693 18.65913359 23.94621613     6    119    0    0    0
C 1042.64465527 20.90760170 23.40614602     1    119   123   124   125
H 1043.68250729 22.67182339 23.78243647     6    122    0    0    0
H 1040.71456412 20.93417974 24.21490769     6    122    0    0    0
H 1042.36847820 20.75872502 21.37065419     6    122    0    0    0
H 1041.86977970 -0.41911728 47.26703461     6     127    0    0    0
C 1040.01616055 -0.00947252 46.40029475     1     126    128    129    130
H 1040.44954143 1.15981814 44.84410835     6     127    0    0    0
H 1039.23588568 -1.92358487 45.90016039     6     127    0    0    0
C 1038.34783257 1.44222683 48.19468392     2     127    131    132    133
H 1038.27615927 0.37779252 49.92112163     6     130    0    0    0
H 1039.34177145 3.25690052 48.67996946     6     130    0    0    0
C 1035.55288132 1.59650650 47.23424292     2     130    134   135   136
H 1035.33892795 2.42095134 45.34637054     6     133    0    0    0
H 1035.14007562 -0.48298080 46.93391223     6     133    0    0    0
C 1033.87084455 3.04789711 49.24229315     2     133   137   138   139
H 1033.75569971 1.74576307 50.87304890     6    136    0    0    0
H 1034.86010334 4.77075775 49.83650569     6    136    0    0    0
C 1031.33436757 3.84297258 48.34107762     2    136   140   141   142
H 1031.37330127 4.89990629 46.58443542     6    139    0    0    0
H 1030.58210929 2.06965155 47.94179779     6    139    0    0    0
C 1029.77475181 5.22059494 50.12812110     2    139   143   144   145
H 1030.04815745 4.62386239 52.12589739     6    142    0    0    0
H 1030.37607241 7.18467252 50.05689347     6    142    0    0    0
C 1026.87710426 5.06722139 49.91256798     2    142   146   147   148
H 1026.32709712 5.82417136 48.01146025     6    145    0    0    0
H 1026.22901067 3.10347172 49.96211992     6    145    0    0    0
C 1025.35952674 6.43263915 51.99989799     2    145   149   150   151
H 1025.74130738 5.49810693 53.82859678     6    148    0    0    0
H 1026.13705377 8.28417666 52.15686284     6    148    0    0    0
C 1022.53813580 6.34194906 51.47018824     2    148   152   153   154
H 1022.15778598 7.33570571 49.80655318     6    151    0    0    0
H 1021.88951362 4.32582285 51.16280600     6    151    0    0    0
C 1020.77470940 7.57439735 53.45141922     2    151   155   156   157
H 1018.74982948 7.09260172 53.00959700     6    154    0    0    0
H 1021.07482799 6.58961011 55.14946736     6    154    0    0    0
C 1021.22777984 10.29530387 54.20846231     2    154   158   159   160
H 1023.08849855 10.61693609 54.81355235     6    157    0    0    0
H 1020.95716708 11.38613243 52.57230676     6    157    0    0    0
C 1019.41400747 11.17184304 56.28291810     1    157   161   162   163
H 1017.55656054 10.91687312 55.60272635     6    160    0    0    0
H 1019.68929615 13.19039690 56.28710459     6    160    0    0    0
H 1019.62142266 10.41241072 58.19906985     6    160    0    0    0
H 1059.52280670 15.34264931 58.60681662     6     165    0    0    0
C 1058.30041454 14.33028824 57.18024857     1     164    166    167    168
H 1056.85477847 15.79291267 56.79137142     6     165    0    0    0
H 1059.45156890 14.04778040 55.42520779     6     165    0    0    0
C 1057.02476850 12.00512639 58.20280773     2     165    169    170    171
H 1058.65457949 10.78746971 58.89016271     6     168    0    0    0
H 1055.67892763 12.43446744 59.76145339     6     168    0    0    0
C 1055.60273698 10.92681614 56.00111938     2     168    172   173   174
H 1054.21219388 12.42449507 55.45870367     6     171    0    0    0
H 1056.85643796 10.66448048 54.45944590     6     171    0    0    0
C 1054.12711770 8.49451095 56.66890241     2     171   175   176   177
H 1055.30448618 7.13374832 57.82919932     6    174    0    0    0
H 1052.70992430 9.08176780 58.07726532     6    174    0    0    0
C 1052.87754622 7.10939576 54.51221763     2    174   178   179   180
H 1051.46326501 8.10812140 53.30358960     6    177    0    0    0
H 1054.24754932 6.14815232 53.24046427     6    177    0    0    0
C 1051.25218096 4.87003040 55.37338796     2    177   181   182   183
H 1052.48470999 3.34734475 56.08349314     6    180    0    0    0
H 1050.05012666 5.20288335 57.02011928     6    180    0    0    0
C 1049.78298734 3.74363932 53.13927860     2    180   184   185   186
H 1048.33297356 5.28035519 52.72024986     6    183    0    0    0
H 1050.95664701 3.69369288 51.42053546     6    183    0    0    0
C 1048.75124596 1.13416979 53.68099577     2    183   187   188   189
H 1049.99811438 -0.31325351 52.90844489     6    186    0    0    0
H 1048.19570932 1.03188112 55.67013002     6    186    0    0    0
C 1046.24260236 0.71773110 52.39181608     2    186   190   191   192
H 1045.01841332 2.31288462 53.03661390     6    189    0    0    0
H 1046.62386075 0.69972797 50.30061486     6    189    0    0    0
C 1045.26654558 -1.91617529 53.40487410     2    189   193   194   195
H 1046.31294585 -3.51794103 52.51375906     6    192    0    0    0
H 1045.74664633 -1.98207697 55.35140353     6    192    0    0    0
C 1042.38036448 -2.05485565 53.02227969     2    192   196   197   198
H 1041.49510607 -0.57109964 54.07562974     6    195    0    0    0
H 1041.94818446 -1.82895318 51.00143339     6    195    0    0    0
C 1040.94160397 -4.39301978 53.84363621     1    195   199   200   201
H 1039.38278800 -4.78765466 52.46971372     6    198    0    0    0
H 1040.17832643 -4.34182475 55.82654274     6    198    0    0    0
H 1042.01057821 -6.23071491 53.83797308     6    198    0    0    0
H 1052.57348464 18.06171068 56.09275336     6     203    0    0    0
C 1052.26097192 18.55115275 54.09418128     1     202    204    205    206
H 1052.61082299 16.77176440 53.12248878     6     203    0    0    0
H 1050.20949170 18.93587788 53.91877804     6     203    0    0    0
C 1053.97358357 20.58842079 53.00382451     2     203    207    208    209
H 1055.96518623 20.14148600 53.15177051     6     206    0    0    0
H 1053.59525192 20.67842499 50.96773216     6     206    0    0    0
C 1053.56480597 23.23637615 53.99586600     2     206    210   211   212
H 1053.47413285 24.43570822 52.35323310     6     209    0    0    0
H 1051.71506903 23.49673027 54.83793012     6     209    0    0    0
C 1055.56484038 24.19133985 55.77493550     2     209   213   214   215
H 1056.21205376 22.55835084 56.86917258     6    212    0    0    0
H 1057.27681276 24.95795005 54.78251079     6    212    0    0    0
C 1054.59018260 26.14115945 57.71892948     2    212   216   217   218
H 1054.02053735 27.60425162 56.54712177     6    215    0    0    0
H 1052.84593686 25.76846921 58.67577865     6    215    0    0    0
C 1056.71078327 26.89088539 59.60281891     2    215   219   220   221
H 1056.52143281 25.33720570 61.07459375     6    218    0    0    0
H 1058.69037131 26.77117330 58.76915527     6    218    0    0    0
C 1056.20531257 29.50809539 60.75176633     2    218   222   223   224
H 1057.81534679 30.10250608 61.96476190     6    221    0    0    0
H 1056.18753540 30.86816255 59.14841312     6    221    0    0    0
C 1053.59241512 29.67848147 62.03004121     2    221   225   226   227
H 1051.95704694 29.88549510 60.52481090     6    224    0    0    0
H 1053.30648775 27.82871910 62.97499454     6    224    0    0    0
C 1053.48562714 31.86595647 64.00426859     2    224   228   229   230
H 1055.18922473 31.92539428 65.20200130     6    227    0    0    0
H 1053.86521478 33.60234593 62.98307087     6    227    0    0    0
C 1051.00988007 31.97629549 65.50273091     2    227   231   232   233
H 1050.07409449 33.51907862 64.66162411     6    230    0    0    0
H 1049.74833410 30.31810421 65.00143444     6    230    0    0    0
C 1051.15837124 32.01408460 68.38459252     2    230   234   235   236
H 1052.01357135 30.20281344 69.20266446     6    233    0    0    0
H 1052.25302295 33.67875398 68.91605276     6    233    0    0    0
C 1048.44623679 32.29587418 69.62752177     1    233   237   238   239
H 1048.58017636 32.31217637 71.70234643     6    236    0    0    0
H 1047.10345424 30.96018200 69.10966932     6    236    0    0    0
H 1047.81927043 34.12780817 69.06661337     6    236    0    0    0
H 1051.04725201 36.03683465 31.70623575     6     241    0    0    0
C 1049.10629095 35.81123806 31.26130317     1     240    242    243    244
H 1048.74695963 35.80240126 29.17090984     6     241    0    0    0
H 1048.36721103 33.96421254 31.99377512     6     241    0    0    0
C 1047.54345817 37.72754490 32.58395454     2     241    245    246    247
H 1048.29335689 37.91823132 34.49172664     6     244    0    0    0
H 1047.91777598 39.41700243 31.64837865     6     244    0    0    0
C 1044.69812485 37.61592917 32.84171863     2     244    248   249   250
H 1043.89534164 36.86776313 31.20998458     6     247    0    0    0
H 1044.19405146 36.41599712 34.37433267     6     247    0    0    0
C 1043.47129999 39.92110307 33.79995801     2     247   251   252   253
H 1042.00782809 39.54486182 35.10828810     6    250    0    0    0
H 1044.85901234 41.23087116 34.71611319     6    250    0    0    0
C 1042.45729499 41.53982216 31.67899394     2    250   254   255   256
H 1043.80090322 41.93197329 30.14890044     6    253    0    0    0
H 1040.85910981 40.47502109 30.88171341     6    253    0    0    0
C 1041.72419710 44.19212908 32.55139706     2    253   257   258   259
H 1040.01817811 44.83405659 31.52697277     6    256    0    0    0
H 1041.16381368 44.13585304 34.56536830     6    256    0    0    0
C 1043.87394143 46.16730108 32.41251491     2    256   260   261   262
H 1045.35755062 45.76049026 33.70417628     6    259    0    0    0
H 1044.52051167 45.92292287 30.53716572     6    259    0    0    0
C 1042.92920101 48.89992904 32.95705279     2    259   263   264   265
H 1041.30606140 49.07241805 31.70949085     6    262    0    0    0
H 1042.30188719 49.11283854 34.86403061     6    262    0    0    0
C 1044.99242136 50.81863792 32.29501866     2    262   266   267   268
H 1046.66965297 50.08252589 33.38071149     6    265    0    0    0
H 1045.17328378 50.66425695 30.24616665     6    265    0    0    0
C 1044.20151061 53.58939397 32.80806587     2    265   269   270   271
H 1042.50619126 53.90538509 31.75332796     6    268    0    0    0
H 1043.58495658 53.70891904 34.77344547     6    268    0    0    0
C 1046.25617607 55.44877597 32.29268362     2    268   272   273   274
H 1047.84539373 54.93706854 33.55426837     6    271    0    0    0
H 1046.98747101 55.13844628 30.39727735     6    271    0    0    0
C 1045.59575034 58.24216412 32.37254804     1    271   275   276   277
H 1045.55428872 58.85065943 34.33768724     6    274    0    0    0
H 1043.76568395 58.70025351 31.44871905     6    274    0    0    0
H 1047.05444198 59.20890812 31.21753184     6    274    0    0    0
H 1056.26842273 14.68292328 45.35569096     6     279    0    0    0
C 1054.34949231 14.87770572 46.27601254     1     278    280    281    282
H 1053.10833986 13.69826321 45.10925409     6     279    0    0    0
H 1054.30860611 14.29104277 48.22838091     6     279    0    0    0
C 1053.47588265 17.61368355 46.17778725     2     279    283    284    285
H 1054.51614822 18.66136018 47.68420350     6     282    0    0    0
H 1054.00044219 18.18883089 44.34863947     6     282    0    0    0
C 1050.67593576 18.24682871 46.64369056     2     282    286   287   288
H 1049.44631909 17.25430211 45.21654423     6     285    0    0    0
H 1050.19287424 17.40794088 48.42421886     6     285    0    0    0
C 1050.12580966 21.01898002 46.62738333     2     285   289   290   291
H 1051.89674101 22.08995313 47.01198874     6    288    0    0    0
H 1049.68954813 21.75471606 44.92093177     6    288    0    0    0
C 1047.92541533 22.03065526 48.22782335     2    288   292   293   294
H 1046.03688615 21.66841889 47.52781176     6    291    0    0    0
H 1048.20009678 21.03045304 50.01997415     6    291    0    0    0
C 1048.03879128 24.81187380 48.80098331     2    291   295   296   297
H 1046.30512235 25.38230529 49.89284870     6    294    0    0    0
H 1049.61837786 24.90923898 50.11748735     6    294    0    0    0
C 1048.67164365 26.66993431 46.60344876     2    294   298   299   300

   17   -1830.5057293057      8.75E-09 Convergence criterion met
 Total energy in the final basis set = -1828.37613161
 Total job time:  16.37s(wall), 29.78s(cpu)
        *  Thank you very much for using Q-Chem.  Have a nice day.  *

User input: 2 of 2

                  Welcome to Q-Chem
     A Quantum Leap Into The Future Of Chemistry

 Q-Chem 5.4 (devel), Q-Chem, Inc., Pleasanton, CA (2021)

 E. Epifanovsky,  A. T. B. Gilbert,  Xintian Feng,  Joonho Lee,  Yuezhi Mao,
 N. Mardirossian,  P. Pokhilko,  A. White,  M. Wormit,  M. P. Coons,
 A. L. Dempwolff,  Zhengting Gan,  D. Hait,  P. R. Horn,  L. D. Jacobson,
 I. Kaliman,  J. Kussmann,  A. W. Lange,  Ka Un Lao,  D. S. Levine,  Jie Liu,
 S. C. McKenzie,  A. F. Morrison,  K. Nanda,  F. Plasser,  D. R. Rehn,
 M. L. Vidal,  Zhi-Qiang You,  Ying Zhu,  B. Alam,  B. Albrecht,
 A. Aldossary,  E. Alguire,  J. H. Andersen,  D. Barton,  K. Begam,  A. Behn,
 Y. A. Bernard,  E. J. Berquist,  H. Burton,  A. Carreras,  K. Carter-Fenk,
 R. Chakraborty,  A. D. Chien,  K. D. Closser,  V. Cofer-Shabica,
 S. Dasgupta,  Jia Deng,  M. de Wergifosse,  M. Diedenhofen,  Hainam Do,
 S. Ehlert,  Po-Tung Fang,  S. Fatehi,  Qingguo Feng,  T. Friedhoff,
 J. Gayvert,  Qinghui Ge,  G. Gidofalvi,  M. Goldey,  J. Gomes,
 C. Gonzalez-Espinoza,  S. Gulania,  A. Gunina,  M. W. D. Hanson-Heine,
 P. H. P. Harbach,  A. W. Hauser,  M. F. Herbst,  M. Hernandez Vera,
 M. Hodecker,  Z. C. Holden,  S. Houck,  Xunkun Huang,  Kerwin Hui,
 B. C. Huynh,  M. Ivanov,  Hyunjun Ji,  Hanjie Jiang,  B. Kaduk,  S. Kaehler,
 K. Khistyaev,  Jaehoon Kim,  P. Klunzinger,  Z. Koczor-Benda,
 Joong Hoon Koh,  D. Kosenkov,  L. Koulias,  T. Kowalczyk,  C. M. Krauter,
 K. Kue,  A. Kunitsa,  T. Kus,  A. Landau,  K. V. Lawler,  D. Lefrancois,
 S. Lehtola,  Rain Li,  Yi-Pei Li,  Jiashu Liang,  M. Liebenthal,
 Hung-Hsuan Lin,  You-Sheng Lin,  Fenglai Liu,  Kuan-Yu Liu,
 M. Loipersberger,  A. Luenser,  A. Manjanath,  P. Manohar,  E. Mansoor,
 S. F. Manzer,  Shan-Ping Mao,  A. V. Marenich,  T. Markovich,  S. Mason,
 S. A. Maurer,  P. F. McLaughlin,  M. F. S. J. Menger,  J.-M. Mewes,
 S. A. Mewes,  P. Morgante,  J. W. Mullinax,  K. J. Oosterbaan,  G. Paran,
 Alexander C. Paul,  Suranjan K. Paul,  F. Pavosevic,  Zheng Pei,  S. Prager,
 E. I. Proynov,  E. Ramos,  B. Rana,  A. E. Rask,  A. Rettig,  R. M. Richard,
 F. Rob,  E. Rossomme,  T. Scheele,  M. Scheurer,  M. Schneider,
 N. Sergueev,  S. M. Sharada,  W. Skomorowski,  D. W. Small,  C. J. Stein,
 Yu-Chuan Su,  E. J. Sundstrom,  Zhen Tao,  J. Thirman,  T. Tsuchimochi,
 N. M. Tubman,  S. P. Veccham,  O. Vydrov,  J. Wenzel,  J. Witte,  A. Yamada,
 Kun Yao,  S. Yeganeh,  S. R. Yost,  A. Zech,  Igor Ying Zhang,  Xing Zhang,
 Yu Zhang,  D. Zuev,  A. Aspuru-Guzik,  A. T. Bell,  N. A. Besley,
 K. B. Bravaya,  B. R. Brooks,  D. Casanova,  Jeng-Da Chai,  S. Coriani,
 C. J. Cramer,  A. E. DePrince, III,  R. A. DiStasio Jr.,  A. Dreuw,
 B. D. Dunietz,  T. R. Furlani,  W. A. Goddard III,  S. Grimme,
 S. Hammes-Schiffer,  T. Head-Gordon,  W. J. Hehre,  Chao-Ping Hsu,
 T.-C. Jagau,  Yousung Jung,  A. Klamt,  Jing Kong,  D. S. Lambrecht,
 WanZhen Liang,  N. J. Mayhall,  C. W. McCurdy,  J. B. Neaton,
 C. Ochsenfeld,  J. A. Parkhill,  R. Peverati,  V. A. Rassolov,  Yihan Shao,
 L. V. Slipchenko,  T. Stauch,  R. P. Steele,  J. E. Subotnik,
 A. J. W. Thom,  A. Tkatchenko,  D. G. Truhlar,  T. Van Voorhis,
 T. A. Wesolowski,  K. B. Whaley,  H. L. Woodcock III,  P. M. Zimmerman,
 S. Faraji,  P. M. W. Gill,  M. Head-Gordon,  J. M. Herbert,  A. I. Krylov

 Additional authors for Version 5.4.1:
 S. Kotaru,  Shaozhi Li,  Xiangyuan Li,  F. Matz,  A. Molle,  Haisheng Ren,
 Yingli Su,  Hung-Yi Tsai,  C. Utku,  Fang Wang

 Contributors to earlier versions of Q-Chem not listed above:
 R. D. Adamson,  B. Austin,  R. Baer,  J. Baker,  G. J. O. Beran,
 K. Brandhorst,  S. T. Brown,  E. F. C. Byrd,  A. K. Chakraborty,
 G. K. L. Chan,  Chun-Min Chang,  Yunqing Chen,  C.-L. Cheng,
 Siu Hung Chien,  D. M. Chipman,  D. L. Crittenden,  H. Dachsel,
 R. J. Doerksen,  A. D. Dutoi,  R. G. Edgar,  J. Fosso-Tande,
 L. Fusti-Molnar,  D. Ghosh,  A. Ghysels,  A. Golubeva-Zadorozhnaya,
 J. Gonthier,  M. S. Gordon,  S. R. Gwaltney,  G. Hawkins,  J. E. Herr,
 A. Heyden,  S. Hirata,  E. G. Hohenstein,  G. Kedziora,  F. J. Keil,
 C. Kelley,  Jihan Kim,  R. A. King,  R. Z. Khaliullin,  P. P. Korambath,
 W. Kurlancheek,  A. Laurent,  A. M. Lee,  M. S. Lee,  S. V. Levchenko,
 Ching Yeh Lin,  D. Liotard,  E. Livshits,  R. C. Lochan,  I. Lotan,
 L. A. Martinez-Martinez,  P. E. Maslen,  N. Nair,  D. P. O'Neill,
 D. Neuhauser,  E. Neuscamman,  C. M. Oana,  R. Olivares-Amaya,  R. Olson,
 T. M. Perrine,  B. Peters,  P. A. Pieniazek,  A. Prociuk,  Y. M. Rhee,
 J. Ritchie,  M. A. Rohrdanz,  E. Rosta,  N. J. Russ,  H. F. Schaefer III,
 M. W. Schmidt,  N. E. Schultz,  S. Sharma,  N. Shenvi,  C. D. Sherrill,
 A. C. Simmonett,  A. Sodt,  T. Stein,  D. Stuck,  K. S. Thanthiriwatte,
 V. Vanovschi,  L. Vogt,  Tao Wang,  A. Warshel,  M. A. Watson,
 C. F. Williams,  Q. Wu,  X. Xu,  Jun Yang,  W. Zhang,  Yan Zhao

 Please cite Q-Chem as follows:
 Y. Shao et al., Mol. Phys. 113, 184-215 (2015)
 DOI: 10.1080/00268976.2014.952696

 Q-Chem 5.4.1 for Intel X86 EM64T Linux

 Parts of Q-Chem use Armadillo 9.900.5 (Nocturnal Misbehaviour).
 http://arma.sourceforge.net/

 Q-Chem begins on Wed Jun 22 16:41:40 2022

 Host: p09r14n13.grace.hpc.yale.internal
0

     Scratch files written to /home/tl686/scratch60/qchem_dev/scratch/qchem246732//
 Processing $rem in /home/tl686/qchem_dev/qchem/config/preferences:
 Processing $rem in /home/tl686/.qchemrc:
Applying user defined connections for MM calculations
The previous job contains 0 fragments, simply inherited here

 Checking the input file for inconsistencies... 	...done.

--------------------------------------------------------------
User input:
--------------------------------------------------------------

$molecule
READ
$end

$qm_atoms
1:11
$end

$force_field_params
NumAtomTypes 3
AtomType -1   0.0238     3.11   0.2868
AtomType -2   0.07124    3.30   0.6597
AtomType -3  -0.0760     3.09   0.1434
$end

$rem
     JOBTYPE  freq
     METHOD   bp86
     BASIS    def2-msvp
     MAX_SCF_CYCLES   800
     INPUT_BOHR TRUE
     SYM_IGNORE TRUE
     SCF_GUESS     read
     user_connect            true
     qm_mm_interface         ONIOM
     force_field             oplsaa
$end

--------------------------------------------------------------

    4   -1830.5057293056      7.12E-10 Convergence criterion met
 Total energy in the final basis set = -1828.37613161

                    Orbital Energies (a.u.)
 --------------------------------------------------------------

 Alpha MOs
 -- Occupied --
******** -29.6389 -25.5969 -25.5907 -25.5796 -18.8911 -18.8833 -18.8830
-18.8757 -18.8748 -10.0611 -10.0603 -10.0510 -10.0466 -10.0373  -3.3228
 -2.1542  -2.1433  -2.1206  -1.0727  -1.0604  -1.0542  -1.0478  -1.0035
 -0.5769  -0.5326  -0.5221  -0.5153  -0.5144  -0.4565  -0.4503  -0.4418
 -0.4360  -0.4292  -0.4286  -0.4244  -0.4196  -0.4160  -0.4112  -0.4074
 -0.4031  -0.3868  -0.3832  -0.3762  -0.2824  -0.2613  -0.2441  -0.2215

          Ground-State Mulliken Net Atomic Charges

     Atom                 Charge (a.u.)
  ----------------------------------------
      1 Fe                   -0.489775
      2 C                     0.200066
      3 C                     0.206016
      4 C                     0.248276
      5 C                     0.208322
      6 C                     0.226525
      7 O                    -0.085915
      8 O                    -0.110665
      9 O                    -0.111982
     10 O                    -0.108104
     11 O                    -0.182765
  ----------------------------------------
  Sum of atomic charges =     0.000000

                    Cartesian Multipole Moments
 -----------------------------------------------------------------
    Charge (ESU x 10^10)
                -0.0000
    Dipole Moment (Debye)
         X       0.6544460947      Y      -0.3332483726      Z      -0.3444766316
       Tot       0.8111832829
    Quadrupole Moments (Debye-Ang)
        XX     635.2806     XY    -170.8871     YY     -78.9689
        XZ    -167.8620     YZ     -13.8925     ZZ     -87.4936
