 Q-Chem 5.4 (devel), Q-Chem, Inc., Pleasanton, CA (2021)
 Q-Chem 5.4.1 for Intel X86 EM64T Linux

User input:
--------------------------------------------------------------
$molecule
0   1
 Fe -59.11288511 -30.22376523 8.19533964    -1  0   0   0   0
C -57.99901799 -33.25971473 7.15487069    -2  0   0   0   0
C -59.18840533 -27.15964087 9.66384268    -2  0   0   0   0
C -56.53121563 -28.74801693 5.98373601    -2  0   0   0   0
C -61.98021703 -29.90099730 6.33826609    -2  0   0   0   0
C -59.42482848 -31.60885117 11.05386671    -2  0   0   0   0
O -57.07649208 -35.15518930 6.61730771    -3  0   0   0   0
O -59.13448464 -25.23770592 10.80404857    -3  0   0   0   0
O -55.21425084 -27.96518369 4.59754942    -3  0   0   0   0
O -63.85153872 -29.42241810 5.30367131    -3  0   0   0   0
O -59.51080097 -32.82987747 13.41327101    -3  0   0   0   0
H -57.98323371 -38.41521883 -17.81007257      6     13    0    0    0
C -56.14055227 -38.64460641 -16.74359361     1     12    14    15    16
H -54.40161023 -39.19469457 -17.72041363     6     13    0    0    0
H -55.68923244 -36.78785492 -16.06004441     6     13    0    0    0
C -56.54507993 -40.62785906 -14.61096172     2     13    17    18    19
H -57.09053198 -42.45242319 -15.35073831     6     16    0    0    0
H -54.67629071 -40.70032605 -13.65141516     6     16    0    0    0
C -58.49397687 -39.77825945 -12.65087300     2     16    20   21   22
H -58.28864476 -37.98349719 -11.70483984     6     19    0    0    0
H -60.21933395 -39.57453839 -13.56356860     6     19    0    0    0
C -59.07353582 -41.51166526 -10.31498413     2     19   23   24   25
H -59.77436784 -43.32997403 -10.88888878     6    22    0    0    0
H -57.32555791 -42.04714414 -9.43957654     6    22    0    0    0
C -60.96600452 -40.34401776 -8.42237955     2    22   26   27   28
H -59.93425672 -39.46402251 -6.98371647     6    25    0    0    0
H -62.37818845 -39.28478676 -9.47799747     6    25    0    0    0
C -62.51958246 -42.48636918 -6.91515569     2    25   29   30   31
H -63.46444838 -43.60542825 -8.26985773     6    28    0    0    0
H -61.32173136 -43.75933474 -5.73140994     6    28    0    0    0
C -64.68158660 -41.47882710 -5.21863281     2    28   32   33   34
H -63.89236236 -40.60999577 -3.52405585     6    31    0    0    0
H -65.49747853 -39.88869074 -6.25575326     6    31    0    0    0
C -66.78627633 -43.33270057 -4.65142148     2    31   35   36   37
H -67.61379126 -43.96511300 -6.48954611     6    34    0    0    0
H -65.82378849 -44.91179395 -3.61135728     6    34    0    0    0
C -68.84512327 -42.35441215 -2.94994026     2    34   38   39   40
H -68.00925317 -41.71788741 -1.17311121     6    37    0    0    0
H -69.78903048 -40.81698739 -3.93626586     6    37    0    0    0
C -70.96490705 -44.29967655 -2.67259533     2    37   41   42   43
H -71.47036681 -44.91186590 -4.63589622     6    40    0    0    0
H -70.35754111 -46.02762610 -1.71588933     6    40    0    0    0
C -73.21992061 -43.31147731 -1.37240812     2    40   44   45   46
H -72.52872355 -42.29131388 0.22587644     6    43    0    0    0
H -74.24995334 -42.01459461 -2.74790326     6    43    0    0    0
C -75.02622883 -45.31936851 -0.26430711     1    43   47   48   49
H -75.04631550 -46.89737934 -1.67163642     6    46    0    0    0
H -77.02831104 -44.81570286 0.33639968     6    46    0    0    0
H -73.91708626 -45.92143253 1.38050080     6    46    0    0    0
H -66.08804746 -36.38973673 10.91744709     6     51    0    0    0
C -64.45198615 -35.69547725 9.84156031     1     50    52    53    54
H -63.92347588 -33.82925346 10.44340202     6     51    0    0    0
H -63.05446635 -37.06202427 10.47048973     6     51    0    0    0
C -64.68929862 -36.21698141 6.98216986     2     51    55    56    57
H -63.03130923 -35.28480186 6.02641913     6     54    0    0    0
H -64.56903500 -38.29936936 6.89915483     6     54    0    0    0
C -67.00952037 -35.16739103 5.86010883     2     54    58   59   60
H -67.15522630 -33.22584031 6.14282822     6     57    0    0    0
H -66.96976801 -35.33020116 3.85834186     6     57    0    0    0
C -69.42818067 -36.62026053 6.82302019     2     57   61   62   63
H -68.80192187 -38.51355373 7.17422315     6    60    0    0    0
H -69.88848096 -36.08917029 8.66792486     6    60    0    0    0
C -71.72735403 -36.35816014 4.89181829     2    60   64   65   66
H -72.27505619 -34.36626461 5.15592600     6    63    0    0    0
H -70.98444420 -36.59060433 3.01296899     6    63    0    0    0
C -74.12439482 -37.82025318 5.19140157     2    63   67   68   69
H -75.62099378 -36.86449727 4.13262980     6    66    0    0    0
H -73.89950016 -39.73074886 4.32906880     6    66    0    0    0
C -75.12909503 -38.17299090 7.96559842     2    66   70   71   72
H -73.70660713 -39.07282388 9.16794456     6    69    0    0    0
H -75.46817053 -36.37524252 9.04028681     6    69    0    0    0
C -77.45802884 -39.80833362 8.02603419     2    69   73   74   75
H -78.95025250 -38.64254462 7.28009854     6    72    0    0    0
H -77.36201889 -41.47394702 6.79740917     6    72    0    0    0
C -77.93011677 -40.66981648 10.75546382     2    72   76   77   78
H -76.40355805 -42.09247095 11.21313837     6    75    0    0    0
H -77.60842099 -39.26691856 12.16050574     6    75    0    0    0
C -80.44108942 -41.97467364 11.00184407     2    75   79   80   81
H -81.91518135 -40.67726299 10.15284654     6    78    0    0    0
H -80.46090908 -43.84521676 10.08260159     6    78    0    0    0
C -81.13356043 -42.28266890 13.81375109     2    78   82   83   84
H -79.64010979 -43.35494770 14.78643831     6    81    0    0    0
H -81.51703396 -40.44922230 14.59851997     6    81    0    0    0
C -83.40140627 -43.89104207 14.01230531     1    81   85   86   87
H -84.05578140 -44.00890948 15.96178564     6    84    0    0    0
H -82.80150067 -45.80673985 13.37947116     6    84    0    0    0
H -85.10433309 -43.07977388 13.13931664     6    84    0    0    0
H -59.62371160 -28.47422131 -29.02758066     6     89    0    0    0
C -61.10329025 -29.77028545 -28.49085013     1     88    90    91    92
H -61.43429365 -31.21116890 -29.89092218     6     89    0    0    0
H -60.61302065 -30.74223378 -26.76711124     6     89    0    0    0
C -63.16582574 -27.91627152 -27.70415401     2     89    93    94    95
H -62.44018526 -26.78833624 -26.02725165     6     92    0    0    0
H -63.30202719 -26.39935044 -29.08555986     6     92    0    0    0
C -65.66583247 -29.29370305 -27.24357299     2     92    96   97   98
H -66.16956336 -30.08705591 -29.08150126     6     95    0    0    0
H -65.53778400 -30.75593820 -25.86617085     6     95    0    0    0
C -67.63985578 -27.55479637 -26.14341278     2     95   99   100   101
H -67.07595297 -27.50973339 -24.30555012     6    98    0    0    0
H -67.78898611 -25.64354732 -26.80060593     6    98    0    0    0
C -70.37891900 -28.46662154 -25.97030901     2    98   102   103   104
H -71.46433007 -27.10795108 -24.89024992     6    101    0    0    0
H -71.19813293 -28.17845392 -27.79749180     6    101    0    0    0
C -70.86365073 -31.27837409 -25.19138868     2    101   105   106   107
H -70.19626478 -32.54902441 -26.50220014     6    104    0    0    0
H -69.79862696 -31.47505809 -23.50901532     6    104    0    0    0
C -73.64814922 -31.92882337 -24.56666109     2    104   108   109   110
H -74.38916588 -30.60765945 -23.29829613     6    107    0    0    0
H -74.84150840 -31.48187962 -26.27020148     6    107    0    0    0
C -73.95150644 -34.80595389 -23.99493202     2    107   111   112   113
H -73.13204505 -36.02392835 -25.48430403     6    110    0    0    0
H -72.65860607 -34.85456162 -22.56938322     6    110    0    0    0
C -76.56150144 -35.56257780 -23.19017070     2    110   114   115   116
H -77.10665082 -34.56107278 -21.52306699     6    113    0    0    0
H -77.95002232 -34.83173903 -24.63773067     6    113    0    0    0
C -76.78433286 -38.32117813 -22.99529518     2    113   117   118   119
H -76.38060806 -39.39348768 -24.80901382     6    116    0    0    0
H -75.26037634 -38.77654187 -21.77537059     6    116    0    0    0
C -79.31309705 -39.24902651 -21.92691180     2    116   120   121   122
H -79.85135252 -38.02496376 -20.34659161     6    119    0    0    0
H -80.69620397 -39.05832894 -23.52066078     6    119    0    0    0
C -79.08246437 -42.00016434 -21.19656471     1    119   123   124   125
H -80.92131983 -42.70259909 -20.50910495     6    122    0    0    0
H -77.97255562 -42.08594482 -19.50419444     6    122    0    0    0
H -78.47220831 -42.95915182 -22.92292920     6    122    0    0    0
H -65.23734777 -8.49160616 -20.24596447     6     127    0    0    0
C -65.40934837 -9.01281872 -18.28074815     1     126    128    129    130
H -66.12863075 -7.39201528 -17.35223931     6     127    0    0    0
H -66.73688152 -10.51236777 -17.77570304     6     127    0    0    0
C -62.81003434 -9.56583189 -17.19282122     2     127    131    132    133
H -61.92204670 -11.33277228 -17.83468868     6     130    0    0    0
H -61.65457120 -8.15901053 -18.08536147     6     130    0    0    0
C -62.64548240 -9.44544853 -14.26556772     2     130    134   135   136
H -61.90962845 -7.49780671 -13.91756795     6     133    0    0    0
H -64.50823575 -9.81402510 -13.38118828     6     133    0    0    0
C -60.63779436 -11.23968667 -13.14166264     2     133   137   138   139
H -60.99006130 -13.31164802 -13.71780362     6    136    0    0    0
H -58.77876924 -11.07705793 -14.04330140     6    136    0    0    0
C -60.48412906 -11.30817943 -10.26123497     2    136   140   141   142
H -59.81487463 -9.56141252 -9.48263505     6    139    0    0    0
H -62.39089566 -11.63856267 -9.67244731     6    139    0    0    0
C -58.71244150 -13.41342119 -9.57898637     2    139   143   144   145
H -59.40124522 -15.14267962 -10.10695492     6    142    0    0    0
H -57.04152706 -13.21771601 -10.78364765     6    142    0    0    0
C -58.34058685 -13.80246140 -6.72591381     2    142   146   147   148
H -57.10935292 -12.19734719 -6.15668258     6    145    0    0    0
H -60.12206390 -13.90078362 -5.56473143     6    145    0    0    0
C -56.96988605 -16.21301513 -6.14117125     2    145   149   150   151
H -58.23379040 -17.86803158 -6.28433248     6    148    0    0    0
H -55.36682820 -16.39081977 -7.52889528     6    148    0    0    0
C -55.66946866 -16.41426794 -3.44882897     2    148   152   153   154
H -54.50792838 -14.64577110 -2.93694928     6    151    0    0    0
H -57.28077121 -16.60703024 -2.10230724     6    151    0    0    0
C -53.90154446 -18.70076899 -3.20418051     2    151   155   156   157
H -53.54353184 -18.70031332 -1.27998021     6    154    0    0    0
H -54.89594636 -20.38027037 -3.67467226     6    154    0    0    0
C -51.54085049 -18.36353858 -4.90147123     2    154   158   159   160
H -51.72544335 -18.67878684 -6.96082777     6    157    0    0    0
H -50.63911269 -16.51184209 -4.68659805     6    157    0    0    0
C -49.65725553 -20.43685720 -4.13969928     1    157   161   162   163
H -48.52919230 -21.11135230 -5.82305408     6    160    0    0    0
H -50.37672272 -22.14182871 -3.16631162     6    160    0    0    0
H -48.13522561 -19.69934338 -2.81457717     6    160    0    0    0
H -81.48719949 -16.83869039 -14.58417044     6     165    0    0    0
C -81.01928211 -14.99208223 -13.71599768     1     164    166    167    168
H -81.69575047 -13.59418645 -15.16466264     6     165    0    0    0
H -82.21697977 -14.54521176 -12.08715705     6     165    0    0    0
C -78.37610064 -14.38347616 -13.34386517     2     165    169    170    171
H -77.52022398 -15.72496459 -12.16011934     6     168    0    0    0
H -77.45652073 -14.65450474 -15.17916473     6     168    0    0    0
C -77.65759274 -11.79862997 -12.18716166     2     168    172   173   174
H -78.88719701 -10.32951729 -12.87895521     6     171    0    0    0
H -78.03190839 -11.81130210 -10.17717706     6     171    0    0    0
C -74.91503239 -11.27620231 -12.70796260     2     171   175   176   177
H -73.56450902 -12.75345239 -12.03555597     6    174    0    0    0
H -74.64724935 -11.42435202 -14.73471217     6    174    0    0    0
C -74.08922167 -8.66573280 -11.85118624     2    174   178   179   180
H -74.74257911 -7.28487995 -13.24048008     6    177    0    0    0
H -74.66621244 -8.23794961 -9.97805675     6    177    0    0    0
C -71.28996600 -8.42177574 -11.90421462     2    177   181   182   183
H -70.23011542 -10.24081503 -11.23616457     6    180    0    0    0
H -70.82774903 -8.34555769 -13.86689968     6    180    0    0    0
C -70.24692233 -6.09477912 -10.72908332     2    180   184   185   186
H -70.89604437 -4.39392793 -11.66517437     6    183    0    0    0
H -70.86244480 -6.10922600 -8.63048757     6    183    0    0    0
C -67.38564282 -6.01116181 -10.90859474     2    183   187   188   189
H -66.70688318 -7.83016851 -10.11862488     6    186    0    0    0
H -66.68306755 -6.18544201 -12.82724002     6    186    0    0    0
C -66.26856766 -3.81206585 -9.53836415     2    186   190   191   192
H -67.25206734 -2.10830443 -10.25831296     6    189    0    0    0
H -66.38493310 -3.93771744 -7.49352958     6    189    0    0    0
C -63.34272812 -3.39348088 -10.50971640     2    189   193   194   195
H -62.31998629 -5.13378299 -10.08885198     6    192    0    0    0
H -63.08846326 -3.03086875 -12.53947992     6    192    0    0    0
C -62.09936938 -1.16287129 -9.29828746     2    192   196   197   198
H -62.82073671 0.55761832 -10.06981493     6    195    0    0    0
H -62.46479842 -1.29390168 -7.31123955     6    195    0    0    0
C -59.36711427 -0.78671389 -9.71853735     1    195   199   200   201
H -58.57150016 0.70410020 -8.54502759     6    198    0    0    0
H -59.07176936 -0.36052430 -11.66493853     6    198    0    0    0
H -58.52543010 -2.50146019 -8.99933057     6    198    0    0    0
H -94.50915264 -17.15399045 -3.19566577     6     203    0    0    0
C -92.77069292 -15.86696903 -3.03608461     1     202    204    205    206
H -92.56756994 -15.04145778 -4.88212821     6     203    0    0    0
H -93.38377951 -14.30920519 -1.85326978     6     203    0    0    0
C -90.40068113 -16.95298769 -1.73499776     2     203    207    208    209
H -91.17084840 -18.30090518 -0.32680926     6     206    0    0    0
H -89.44704733 -18.10362343 -3.15645744     6     206    0    0    0
C -88.45944539 -15.18253939 -0.39597846     2     206    210   211   212
H -86.68973463 -16.15087187 -0.40367153     6     209    0    0    0
H -88.29897427 -13.31155024 -1.29241038     6     209    0    0    0
C -89.21678823 -14.87436063 2.34001170     2     209   213   214   215
H -91.29319596 -14.34137004 2.37926917     6    212    0    0    0
H -88.94555979 -16.66463527 3.43404746     6    212    0    0    0
C -87.58550104 -12.91903060 3.74035794     2    212   216   217   218
H -85.77068110 -13.84354894 3.81563505     6    215    0    0    0
H -87.21853169 -11.07497884 2.77240831     6    215    0    0    0
C -88.45139981 -12.62626761 6.47386811     2    215   219   220   221
H -90.34843599 -11.82818343 6.52758463     6    218    0    0    0
H -88.48251004 -14.50483855 7.33224279     6    218    0    0    0
C -86.70772796 -10.88432762 8.05248691     2    218   222   223   224
H -84.76110138 -11.58144401 7.64599200     6    221    0    0    0
H -86.67412620 -9.06099773 7.25141011     6    221    0    0    0
C -87.27987687 -10.79021195 10.89078385     2    221   225   226   227
H -89.24698257 -10.34948926 11.45179741     6    224    0    0    0
H -86.93079556 -12.66881993 11.50241723     6    224    0    0    0
C -85.49099081 -8.94252534 12.36879934     2    224   228   229   230
H -83.76406350 -9.42990814 11.42118199     6    227    0    0    0
H -85.91768480 -7.03225925 12.06051699     6    227    0    0    0
C -85.53903316 -9.59535849 15.13726763     2    227   231   232   233
H -87.30240551 -9.08652311 15.84313040     6    230    0    0    0
H -85.31470624 -11.56695863 15.43288429     6    230    0    0    0
C -83.42506004 -8.14926067 16.53894351     2    230   234   235   236
H -81.60232150 -8.49500511 15.57693460     6    233    0    0    0
H -83.51715083 -6.04764807 16.30093555     6    233    0    0    0
C -82.97945084 -8.92904004 19.31110154     1    233   237   238   239
H -81.79034849 -7.50890495 20.13522200     6    236    0    0    0
H -82.00482447 -10.77197661 19.43959310     6    236    0    0    0
H -84.84589843 -9.00152201 20.32313083     6    236    0    0    0
H -87.22734685 -35.02552563 2.08757016     6     241    0    0    0
C -85.23933001 -35.04701550 1.68843891     1     240    242    243    244
H -84.72894209 -34.20595959 -0.13471491     6     241    0    0    0
H -84.35261003 -33.95722065 3.16207140     6     241    0    0    0
C -84.53808226 -37.87989119 1.68352770     2     241    245    246    247
H -85.72467490 -38.58594287 0.30028170     6     244    0    0    0
H -82.65125795 -38.33209193 1.09069448     6     244    0    0    0
C -85.39643457 -39.28297364 4.17244070     2     244    248   249   250
H -84.05372894 -39.09812684 5.69444134     6     247    0    0    0
H -87.05363417 -38.27419072 4.74837344     6     247    0    0    0
C -85.83610297 -42.11809037 3.91742094     2     247   251   252   253
H -87.12474261 -42.83352004 5.29890063     6    250    0    0    0
H -86.74408525 -42.77551102 2.14633337     6    250    0    0    0
C -83.30070450 -43.63383974 4.26305384     2    250   254   255   256
H -81.77452140 -42.77167182 3.15208574     6    253    0    0    0
H -83.05119321 -43.34776490 6.31750469     6    253    0    0    0
C -83.43687148 -46.41896502 3.60716717     2    253   257   258   259
H -82.01532882 -47.32826624 4.78714047     6    256    0    0    0
H -85.12030798 -47.42845582 4.18722430     6    256    0    0    0
C -83.05443608 -46.92875371 0.70588836     2    256   260   261   262
H -84.64225341 -46.05671906 -0.11779180     6    259    0    0    0
H -81.33386053 -46.17427897 0.09501986     6    259    0    0    0
C -83.60389284 -49.73086363 0.43797824     2    259   263   264   265
H -82.59837475 -50.86674530 1.70427084     6    262    0    0    0
H -85.60747006 -50.17580246 0.80325657     6    262    0    0    0
C -83.09921416 -50.55279362 -2.33927286     2    262   266   267   268
H -84.19639283 -49.45734938 -3.52024211     6    265    0    0    0
H -81.27638632 -49.92825293 -3.11825745     6    265    0    0    0
C -83.43952394 -53.32247629 -2.66445801     2    265   269   270   271
H -82.60130933 -53.99059195 -4.35321270     6    268    0    0    0
H -82.49538152 -54.14966822 -1.04905905     6    268    0    0    0
C -86.28879291 -54.13994693 -2.56048812     2    268   272   273   274
H -86.49298567 -56.11591723 -2.14452827     6    271    0    0    0
H -87.11307371 -53.13448941 -0.80421882     6    271    0    0    0
C -87.94703963 -53.31729055 -4.77705188     1    271   275   276   277
H -88.10335741 -51.36369445 -5.15132410     6    274    0    0    0
H -89.75697030 -54.33060188 -4.70630033     6    274    0    0    0
H -87.06408322 -54.03895087 -6.57303077     6    274    0    0    0
H -78.68578847 -23.06030778 -15.83471681     6     279    0    0    0
C -79.53356655 -24.62564166 -14.75418261     1     278    280    281    282
H -80.25178209 -26.29203402 -15.88922721     6     279    0    0    0
H -78.04888834 -25.64183368 -13.63732601     6     279    0    0    0
C -81.49402262 -23.57464196 -13.07979846     2     279    283    284    285
H -80.93298147 -21.75927513 -12.39624953     6     282    0    0    0
H -83.32042630 -23.41827544 -14.04089448     6     282    0    0    0
C -82.11218511 -25.28996648 -11.00080593     2     282    286   287   288
H -82.90724160 -27.10273561 -11.76307178     6     285    0    0    0
H -80.54237754 -25.92019349 -9.94109548     6     285    0    0    0
C -84.02786622 -24.25517495 -9.22632608     2     285   289   290   291
H -83.74260038 -22.39458064 -8.53372793     6    288    0    0    0
H -85.69231176 -24.28370009 -10.28493036     6    288    0    0    0
C -84.60537679 -26.10118974 -7.05969502     2    288   292   293   294
H -85.03034284 -27.98190712 -7.75697614     6    291    0    0    0
H -82.81340998 -26.33637836 -6.12135643     6    291    0    0    0
C -86.53266153 -25.15671403 -4.98147857     2    291   295   296   297
H -86.25740401 -23.23208371 -4.40074222     6    294    0    0    0
H -88.34561289 -24.86531710 -5.92345534     6    294    0    0    0
C -86.42755127 -26.84975654 -2.56640063     2    294   298   299   300

   19   -1830.4440534201      5.11E-09 Convergence criterion met
 Total energy in the final basis set = -1828.19255079
 Total job time:  17.18s(wall), 30.90s(cpu)
        *  Thank you very much for using Q-Chem.  Have a nice day.  *

User input: 2 of 2

                  Welcome to Q-Chem
     A Quantum Leap Into The Future Of Chemistry

 Q-Chem 5.4 (devel), Q-Chem, Inc., Pleasanton, CA (2021)

 E. Epifanovsky,  A. T. B. Gilbert,  Xintian Feng,  Joonho Lee,  Yuezhi Mao,
 N. Mardirossian,  P. Pokhilko,  A. White,  M. Wormit,  M. P. Coons,
 A. L. Dempwolff,  Zhengting Gan,  D. Hait,  P. R. Horn,  L. D. Jacobson,
 I. Kaliman,  J. Kussmann,  A. W. Lange,  Ka Un Lao,  D. S. Levine,  Jie Liu,
 S. C. McKenzie,  A. F. Morrison,  K. Nanda,  F. Plasser,  D. R. Rehn,
 M. L. Vidal,  Zhi-Qiang You,  Ying Zhu,  B. Alam,  B. Albrecht,
 A. Aldossary,  E. Alguire,  J. H. Andersen,  D. Barton,  K. Begam,  A. Behn,
 Y. A. Bernard,  E. J. Berquist,  H. Burton,  A. Carreras,  K. Carter-Fenk,
 R. Chakraborty,  A. D. Chien,  K. D. Closser,  V. Cofer-Shabica,
 S. Dasgupta,  Jia Deng,  M. de Wergifosse,  M. Diedenhofen,  Hainam Do,
 S. Ehlert,  Po-Tung Fang,  S. Fatehi,  Qingguo Feng,  T. Friedhoff,
 J. Gayvert,  Qinghui Ge,  G. Gidofalvi,  M. Goldey,  J. Gomes,
 C. Gonzalez-Espinoza,  S. Gulania,  A. Gunina,  M. W. D. Hanson-Heine,
 P. H. P. Harbach,  A. W. Hauser,  M. F. Herbst,  M. Hernandez Vera,
 M. Hodecker,  Z. C. Holden,  S. Houck,  Xunkun Huang,  Kerwin Hui,
 B. C. Huynh,  M. Ivanov,  Hyunjun Ji,  Hanjie Jiang,  B. Kaduk,  S. Kaehler,
 K. Khistyaev,  Jaehoon Kim,  P. Klunzinger,  Z. Koczor-Benda,
 Joong Hoon Koh,  D. Kosenkov,  L. Koulias,  T. Kowalczyk,  C. M. Krauter,
 K. Kue,  A. Kunitsa,  T. Kus,  A. Landau,  K. V. Lawler,  D. Lefrancois,
 S. Lehtola,  Rain Li,  Yi-Pei Li,  Jiashu Liang,  M. Liebenthal,
 Hung-Hsuan Lin,  You-Sheng Lin,  Fenglai Liu,  Kuan-Yu Liu,
 M. Loipersberger,  A. Luenser,  A. Manjanath,  P. Manohar,  E. Mansoor,
 S. F. Manzer,  Shan-Ping Mao,  A. V. Marenich,  T. Markovich,  S. Mason,
 S. A. Maurer,  P. F. McLaughlin,  M. F. S. J. Menger,  J.-M. Mewes,
 S. A. Mewes,  P. Morgante,  J. W. Mullinax,  K. J. Oosterbaan,  G. Paran,
 Alexander C. Paul,  Suranjan K. Paul,  F. Pavosevic,  Zheng Pei,  S. Prager,
 E. I. Proynov,  E. Ramos,  B. Rana,  A. E. Rask,  A. Rettig,  R. M. Richard,
 F. Rob,  E. Rossomme,  T. Scheele,  M. Scheurer,  M. Schneider,
 N. Sergueev,  S. M. Sharada,  W. Skomorowski,  D. W. Small,  C. J. Stein,
 Yu-Chuan Su,  E. J. Sundstrom,  Zhen Tao,  J. Thirman,  T. Tsuchimochi,
 N. M. Tubman,  S. P. Veccham,  O. Vydrov,  J. Wenzel,  J. Witte,  A. Yamada,
 Kun Yao,  S. Yeganeh,  S. R. Yost,  A. Zech,  Igor Ying Zhang,  Xing Zhang,
 Yu Zhang,  D. Zuev,  A. Aspuru-Guzik,  A. T. Bell,  N. A. Besley,
 K. B. Bravaya,  B. R. Brooks,  D. Casanova,  Jeng-Da Chai,  S. Coriani,
 C. J. Cramer,  A. E. DePrince, III,  R. A. DiStasio Jr.,  A. Dreuw,
 B. D. Dunietz,  T. R. Furlani,  W. A. Goddard III,  S. Grimme,
 S. Hammes-Schiffer,  T. Head-Gordon,  W. J. Hehre,  Chao-Ping Hsu,
 T.-C. Jagau,  Yousung Jung,  A. Klamt,  Jing Kong,  D. S. Lambrecht,
 WanZhen Liang,  N. J. Mayhall,  C. W. McCurdy,  J. B. Neaton,
 C. Ochsenfeld,  J. A. Parkhill,  R. Peverati,  V. A. Rassolov,  Yihan Shao,
 L. V. Slipchenko,  T. Stauch,  R. P. Steele,  J. E. Subotnik,
 A. J. W. Thom,  A. Tkatchenko,  D. G. Truhlar,  T. Van Voorhis,
 T. A. Wesolowski,  K. B. Whaley,  H. L. Woodcock III,  P. M. Zimmerman,
 S. Faraji,  P. M. W. Gill,  M. Head-Gordon,  J. M. Herbert,  A. I. Krylov

 Additional authors for Version 5.4.1:
 S. Kotaru,  Shaozhi Li,  Xiangyuan Li,  F. Matz,  A. Molle,  Haisheng Ren,
 Yingli Su,  Hung-Yi Tsai,  C. Utku,  Fang Wang

 Contributors to earlier versions of Q-Chem not listed above:
 R. D. Adamson,  B. Austin,  R. Baer,  J. Baker,  G. J. O. Beran,
 K. Brandhorst,  S. T. Brown,  E. F. C. Byrd,  A. K. Chakraborty,
 G. K. L. Chan,  Chun-Min Chang,  Yunqing Chen,  C.-L. Cheng,
 Siu Hung Chien,  D. M. Chipman,  D. L. Crittenden,  H. Dachsel,
 R. J. Doerksen,  A. D. Dutoi,  R. G. Edgar,  J. Fosso-Tande,
 L. Fusti-Molnar,  D. Ghosh,  A. Ghysels,  A. Golubeva-Zadorozhnaya,
 J. Gonthier,  M. S. Gordon,  S. R. Gwaltney,  G. Hawkins,  J. E. Herr,
 A. Heyden,  S. Hirata,  E. G. Hohenstein,  G. Kedziora,  F. J. Keil,
 C. Kelley,  Jihan Kim,  R. A. King,  R. Z. Khaliullin,  P. P. Korambath,
 W. Kurlancheek,  A. Laurent,  A. M. Lee,  M. S. Lee,  S. V. Levchenko,
 Ching Yeh Lin,  D. Liotard,  E. Livshits,  R. C. Lochan,  I. Lotan,
 L. A. Martinez-Martinez,  P. E. Maslen,  N. Nair,  D. P. O'Neill,
 D. Neuhauser,  E. Neuscamman,  C. M. Oana,  R. Olivares-Amaya,  R. Olson,
 T. M. Perrine,  B. Peters,  P. A. Pieniazek,  A. Prociuk,  Y. M. Rhee,
 J. Ritchie,  M. A. Rohrdanz,  E. Rosta,  N. J. Russ,  H. F. Schaefer III,
 M. W. Schmidt,  N. E. Schultz,  S. Sharma,  N. Shenvi,  C. D. Sherrill,
 A. C. Simmonett,  A. Sodt,  T. Stein,  D. Stuck,  K. S. Thanthiriwatte,
 V. Vanovschi,  L. Vogt,  Tao Wang,  A. Warshel,  M. A. Watson,
 C. F. Williams,  Q. Wu,  X. Xu,  Jun Yang,  W. Zhang,  Yan Zhao

 Please cite Q-Chem as follows:
 Y. Shao et al., Mol. Phys. 113, 184-215 (2015)
 DOI: 10.1080/00268976.2014.952696

 Q-Chem 5.4.1 for Intel X86 EM64T Linux

 Parts of Q-Chem use Armadillo 9.900.5 (Nocturnal Misbehaviour).
 http://arma.sourceforge.net/

 Q-Chem begins on Wed Jun 22 08:05:42 2022

 Host: p09r16n04.grace.hpc.yale.internal
0

     Scratch files written to /home/tl686/scratch60/qchem_dev/scratch/qchem69354//
 Processing $rem in /home/tl686/qchem_dev/qchem/config/preferences:
 Processing $rem in /home/tl686/.qchemrc:
Applying user defined connections for MM calculations
The previous job contains 0 fragments, simply inherited here

 Checking the input file for inconsistencies... 	...done.

--------------------------------------------------------------
User input:
--------------------------------------------------------------

$molecule
READ
$end

$qm_atoms
1:11
$end

$force_field_params
NumAtomTypes 3
AtomType -1   0.0238     3.11   0.2868
AtomType -2   0.07124    3.30   0.6597
AtomType -3  -0.0760     3.09   0.1434
$end

$rem
     JOBTYPE  freq
     METHOD   bp86
     BASIS    def2-msvp
     MAX_SCF_CYCLES   800
     INPUT_BOHR TRUE
     SYM_IGNORE TRUE
     SCF_GUESS     read
     user_connect            true
     qm_mm_interface         ONIOM
     force_field             oplsaa
$end

--------------------------------------------------------------

    3   -1830.4440534205      6.22E-09 Convergence criterion met
 Total energy in the final basis set = -1828.19255079

                    Orbital Energies (a.u.)
 --------------------------------------------------------------

 Alpha MOs
 -- Occupied --
******** -29.6435 -25.6015 -25.5947 -25.5845 -18.9165 -18.8945 -18.8889
-18.8827 -18.8325 -10.0667 -10.0611 -10.0610 -10.0455 -10.0435  -3.3293
 -2.1619  -2.1503  -2.1262  -1.1258  -1.0737  -1.0566  -1.0506  -0.8968
 -0.5824  -0.5406  -0.5322  -0.5216  -0.5160  -0.4791  -0.4730  -0.4637
 -0.4446  -0.4409  -0.4349  -0.4298  -0.4218  -0.4217  -0.4169  -0.4098
 -0.4045  -0.3735  -0.3291  -0.3243  -0.2770  -0.2703  -0.2452  -0.2244

          Ground-State Mulliken Net Atomic Charges

     Atom                 Charge (a.u.)
  ----------------------------------------
      1 Fe                   -0.422651
      2 C                     0.207182
      3 C                     0.223368
      4 C                     0.203703
      5 C                     0.253431
      6 C                     0.166259
      7 O                    -0.090837
      8 O                    -0.121430
      9 O                    -0.016947
     10 O                    -0.105573
     11 O                    -0.296506
  ----------------------------------------
  Sum of atomic charges =     0.000000

                    Cartesian Multipole Moments
 -----------------------------------------------------------------
    Charge (ESU x 10^10)
                -0.0000
    Dipole Moment (Debye)
         X       0.9709900677      Y       1.1412784095      Z      -2.8680492543
       Tot       3.2358993564
    Quadrupole Moments (Debye-Ang)
        XX    -128.3785     XY     -50.2950     YY    -105.8620
        XZ      92.8447     YZ      53.2916     ZZ     -98.5556

 Frequency:      -414.05                -403.03                 -33.64
 Force Cnst:      1.4209                 1.3778                 0.0101
 Red. Mass:      14.0665                14.3968                15.1450
 IR Intens:        0.000                  0.000                  0.000
 Frequency:        75.33                  85.74                 107.85
 Force Cnst:      0.0527                 0.0697                 0.1113
 Red. Mass:      15.7583                16.0813                16.2336
 IR Intens:        0.000                  0.000                  0.000
 Frequency:       156.74                 200.31                 258.73
 Force Cnst:      0.2223                 0.3626                 0.5600
 Red. Mass:      15.3603                15.3400                14.1989
 IR Intens:        0.000                  0.000                  0.000
 Frequency:       302.40                 386.73                 417.33
 Force Cnst:      0.8353                 1.1298                 1.4498
 Red. Mass:      15.5033                12.8212                14.1283
 IR Intens:        0.000                  0.000                  0.000
 Frequency:       436.34                 446.16                 470.98
 Force Cnst:      1.4969                 1.6786                 1.8126
 Red. Mass:      13.3444                14.3128                13.8691
 IR Intens:        0.000                  0.000                  0.000
 Frequency:       488.57                 526.88                 565.96
 Force Cnst:      1.8998                 2.4658                 3.3855
 Red. Mass:      13.5086                15.0762                17.9388
 IR Intens:        0.000                  0.000                  0.000
 Frequency:       584.17                 618.68                 715.19
 Force Cnst:      3.1803                 3.3170                 4.1703
 Red. Mass:      15.8180                14.7080                13.8380
 IR Intens:        0.000                  0.000                  0.000
 Frequency:       720.35                 955.83                1905.82
 Force Cnst:      4.2221                 7.1210                28.4637
 Red. Mass:      13.8100                13.2291                13.3007
 IR Intens:        0.000                  0.000                  0.000
 Frequency:      2061.99                2134.15                2547.89
 Force Cnst:     33.4120                35.7221                51.3461
 Red. Mass:      13.3376                13.3118                13.4244
 IR Intens:        0.000                  0.000                  0.000

 STANDARD THERMODYNAMIC QUANTITIES AT   298.15 K  AND     1.00 ATM

   This Molecule has  3 Imaginary Frequencies
   Zero point vibrational energy:       24.546 kcal/mol

   Atom    1 Element Fe Has Mass   55.93490
   Atom    2 Element C  Has Mass   12.00000
   Atom    3 Element C  Has Mass   12.00000
   Atom    4 Element C  Has Mass   12.00000
   Atom    5 Element C  Has Mass   12.00000
   Atom    6 Element C  Has Mass   12.00000
   Atom    7 Element O  Has Mass   15.99491
   Atom    8 Element O  Has Mass   15.99491
   Atom    9 Element O  Has Mass   15.99491
   Atom   10 Element O  Has Mass   15.99491
   Atom   11 Element O  Has Mass   15.99491
   Molecular Mass:   195.909450 amu
   Principal axes and moments of inertia in amu*Bohr^2:
                             1           2           3
    Eigenvalues --     2001.29907  2090.12253  2479.07876
          X              -0.05748    -0.38132     0.92265
          Y               0.93571     0.30162     0.18295
          Z              -0.34806     0.87385     0.33947
   Rotational Symmetry Number is   1
   The Molecule is an Asymmetric Top
   Translational Enthalpy:        0.889 kcal/mol
   Rotational Enthalpy:           0.889 kcal/mol
   Vibrational Enthalpy:         28.905 kcal/mol
   gas constant (RT):             0.592 kcal/mol
   Translational Entropy:        41.722  cal/mol.K
   Rotational Entropy:           30.717  cal/mol.K
   Vibrational Entropy:          26.535  cal/mol.K

   Total Enthalpy:               31.274 kcal/mol
   Total Entropy:                98.975  cal/mol.K

 Total job time:  122.64s(wall), 241.91s(cpu)
        *  Thank you very much for using Q-Chem.  Have a nice day.  *
