 Q-Chem 5.4 (devel), Q-Chem, Inc., Pleasanton, CA (2021)
 Q-Chem 5.4.1 for Intel X86 EM64T Linux

User input:
--------------------------------------------------------------
$molecule
0   1
 Fe 1474.64544793 68.91906879 60.28024715    -1  0   0   0   0
C 1475.22367672 66.95854609 57.35625666    -2  0   0   0   0
C 1474.52370408 70.39958444 63.30196186    -2  0   0   0   0
C 1471.31944036 69.05752261 59.88632110    -2  0   0   0   0
C 1476.71145248 66.78762684 61.96291189    -2  0   0   0   0
C 1476.14220115 71.61437578 58.94040114    -2  0   0   0   0
O 1475.64321353 65.95434859 55.51219050    -3  0   0   0   0
O 1474.41452137 71.43858538 65.24877775    -3  0   0   0   0
O 1468.99458014 69.20824096 59.68143153    -3  0   0   0   0
O 1477.94509249 65.31237852 62.87611133    -3  0   0   0   0
O 1477.18682858 73.42684941 58.27488566    -3  0   0   0   0
H 1456.61456801 49.00080168 51.48687372      6     13    0    0    0
C 1456.88843920 50.07245929 49.87203335     1     12    14    15    16
H 1455.29221420 50.12117063 48.63464502     6     13    0    0    0
H 1457.20242746 51.90544292 50.67546142     6     13    0    0    0
C 1459.14135862 49.20477260 48.42710283     2     13    17    18    19
H 1458.89808679 47.10479100 48.56036755     6     16    0    0    0
H 1459.03741955 49.56017827 46.42506719     6     16    0    0    0
C 1461.79027919 50.21318190 49.49290003     2     16    20   21   22
H 1461.70045328 52.15986090 49.05412664     6     19    0    0    0
H 1462.26714428 49.94830311 51.47622210     6     19    0    0    0
C 1463.72864218 48.69814440 47.86836493     2     19   23   24   25
H 1463.58603448 46.78272555 48.44091905     6    22    0    0    0
H 1463.28596617 48.78323177 45.97770713     6    22    0    0    0
C 1466.53300969 49.41780899 48.20254638     2    22   26   27   28
H 1466.81376923 51.40349826 47.94479066     6    25    0    0    0
H 1466.95163602 49.09427644 50.22367576     6    25    0    0    0
C 1468.04558824 47.62234021 46.59904162     2    25   29   30   31
H 1467.41954223 45.63431917 46.77034604     6    28    0    0    0
H 1467.57433995 48.16304505 44.72975723     6    28    0    0    0
C 1470.98207057 47.78972019 46.70498496     2    28   32   33   34
H 1471.63584906 47.29700711 44.90008736     6    31    0    0    0
H 1471.64985786 49.75669842 46.87871342     6    31    0    0    0
C 1472.29762142 45.88931210 48.48331234     2    31   35   36   37
H 1470.93706335 45.80854471 50.12644427     6    34    0    0    0
H 1472.38269662 43.91737523 47.80363308     6    34    0    0    0
C 1475.11190281 46.57654213 49.09091164     2    34   38   39   40
H 1475.93368200 46.63700378 47.26366392     6    37    0    0    0
H 1475.24379520 48.20404511 50.19460889     6    37    0    0    0
C 1476.64277498 44.44085440 50.35048874     2    37   41   42   43
H 1475.65510578 43.84732211 52.15548617     6    40    0    0    0
H 1476.51830350 42.88102951 49.01454812     6    40    0    0    0
C 1479.45562742 45.20648118 50.85353438     2    40   44   45   46
H 1480.23144484 45.72845220 49.08982463     6    43    0    0    0
H 1479.59654098 46.86238827 52.18484906     6    43    0    0    0
C 1480.91233184 42.96754733 51.82261630     1    43   47   48   49
H 1480.14160287 41.63885279 53.22904286     6    46    0    0    0
H 1482.78097581 43.43891846 52.56469863     6    46    0    0    0
H 1481.52466401 41.82808162 50.19817119     6    46    0    0    0
H 1482.20037833 60.66680869 56.79994920     6     51    0    0    0
C 1480.35124726 61.51956807 57.11733139     1     50    52    53    54
H 1480.10750039 61.86194744 59.11904289     6     51    0    0    0
H 1480.42875590 63.32896658 56.34940026     6     51    0    0    0
C 1478.42915758 59.85372518 55.77615918     2     51    55    56    57
H 1476.54514586 60.44418852 56.01221381     6     54    0    0    0
H 1478.98846512 59.93518127 53.69737246     6     54    0    0    0
C 1478.53860276 57.04370985 56.70452885     2     54    58   59   60
H 1478.08054552 57.11367044 58.76973465     6     57    0    0    0
H 1477.00268413 56.02580676 55.96685630     6     57    0    0    0
C 1480.93817898 55.44991289 56.14516218     2     57   61   62   63
H 1480.53967536 54.77535478 54.24674548     6    60    0    0    0
H 1482.70417320 56.54153998 55.92318429     6    60    0    0    0
C 1481.34795414 52.95595394 57.73632186     2    60   64   65   66
H 1482.77034092 53.57245124 59.06853864     6    63    0    0    0
H 1479.67116558 52.29405795 58.86428196     6    63    0    0    0
C 1482.48794095 50.68770602 56.23518380     2    63   67   68   69
H 1482.80213215 49.12571915 57.37829585     6    66    0    0    0
H 1481.09207327 49.95703585 54.74540271     6    66    0    0    0
C 1485.08282041 51.16119841 54.98877158     2    66   70   71   72
H 1485.03029296 52.85065964 53.72137333     6    69    0    0    0
H 1486.41702321 51.66258649 56.55835833     6    69    0    0    0
C 1486.21827864 48.99260533 53.41599092     2    69   73   74   75
H 1486.83548249 47.40155056 54.48788597     6    72    0    0    0
H 1484.81849224 48.44423143 52.08506500     6    72    0    0    0
C 1488.60087586 49.79737049 51.92282936     2    72   76   77   78
H 1488.03441515 51.47763101 50.85811919     6    75    0    0    0
H 1490.11146609 50.41994211 53.23356462     6    75    0    0    0
C 1489.41111244 47.68396307 50.02087569     2    75   79   80   81
H 1490.56467619 46.20254773 50.94427713     6    78    0    0    0
H 1487.88072434 46.91439820 49.01669570     6    78    0    0    0
C 1491.17296805 49.11805892 48.11545898     2    78   82   83   84
H 1490.11646436 50.31785065 46.83259343     6    81    0    0    0
H 1492.48000639 50.41857513 49.11645570     6    81    0    0    0
C 1492.97080324 47.19918123 46.76170541     1    81   85   86   87
H 1494.32974040 48.23337309 45.57010443     6    84    0    0    0
H 1492.00491743 45.69143361 45.66796801     6    84    0    0    0
H 1493.93260888 45.97515572 48.13988393     6    84    0    0    0
H 1458.72418187 45.21832302 67.07367995     6     89    0    0    0
C 1458.73532289 43.15726302 66.75995331     1     88    90    91    92
H 1460.11284178 42.67334423 68.10412611     6     89    0    0    0
H 1456.93362930 42.23997228 67.24742868     6     89    0    0    0
C 1459.54288873 42.48697612 64.03040914     2     89    93    94    95
H 1457.93711622 42.82808549 62.69448633     6     92    0    0    0
H 1460.76701347 44.00633349 63.42919846     6     92    0    0    0
C 1460.46136554 39.74501234 63.76225505     2     92    96   97   98
H 1461.33645692 39.36288180 65.64484381     6     95    0    0    0
H 1458.98957859 38.43911554 63.55186993     6     95    0    0    0
C 1462.27258476 39.35216285 61.59487610     2     95   99   100   101
H 1461.36202346 39.41747422 59.77224490     6    98    0    0    0
H 1463.69265146 40.89459012 61.62478808     6    98    0    0    0
C 1463.47481153 36.75780083 61.72765445     2    98   102   103   104
H 1464.58836157 36.60781073 63.40726209     6    101    0    0    0
H 1461.77484482 35.53349961 61.85984382     6    101    0    0    0
C 1465.00282647 36.12959566 59.36748065     2    101   105   106   107
H 1463.77557566 36.22858733 57.69554207     6    104    0    0    0
H 1466.55715414 37.45287374 59.05663128     6    104    0    0    0
C 1466.16883490 33.37654504 59.70731311     2    104   108   109   110
H 1467.16232721 33.32990466 61.55311536     6    107    0    0    0
H 1464.71339087 32.00692510 59.83016328     6    107    0    0    0
C 1468.02633704 32.77759126 57.55200941     2    107   111   112   113
H 1467.28934558 33.54685545 55.79248288     6    110    0    0    0
H 1469.75653943 33.86695603 57.76007168     6    110    0    0    0
C 1468.62783569 29.95351853 57.40099150     2    110   114   115   116
H 1469.72388120 29.24747303 59.05250648     6    113    0    0    0
H 1466.87196119 29.02336772 57.38762378     6    113    0    0    0
C 1470.00891708 29.54868950 54.90700482     2    113   117   118   119
H 1468.97497177 28.78355765 53.33351857     6    116    0    0    0
H 1470.83082261 31.18263100 54.08635816     6    116    0    0    0
C 1472.27334054 27.54197619 55.12695755     2    116   120   121   122
H 1472.75621339 26.93460631 53.27439828     6    119    0    0    0
H 1473.98506086 28.15694964 56.09767515     6    119    0    0    0
C 1471.34202720 24.99402187 56.30194198     1    119   123   124   125
H 1472.89231440 23.83234861 56.13390031     6    122    0    0    0
H 1469.79915641 24.01732200 55.42930285     6    122    0    0    0
H 1470.84978718 25.18855882 58.29480189     6    122    0    0    0
H 1453.10896174 42.40925857 71.08426421     6     127    0    0    0
C 1454.17770888 43.37576631 72.61940426     1     126    128    129    130
H 1454.44059400 41.91002484 74.16000067     6     127    0    0    0
H 1456.10614828 43.45203955 71.97837501     6     127    0    0    0
C 1453.07442097 45.95865468 73.61072904     2     127    131    132    133
H 1452.93596927 47.37552539 72.12064532     6     130    0    0    0
H 1451.15650497 45.78328119 74.38366375     6     130    0    0    0
C 1454.73607237 47.11836255 75.71127229     2     130    134   135   136
H 1454.41627282 46.09538921 77.34089661     6     133    0    0    0
H 1456.62977091 46.70432051 75.09358131     6     133    0    0    0
C 1454.04455710 49.97539954 76.02967861     2     133   137   138   139
H 1451.92199979 50.05514006 75.98973722     6    136    0    0    0
H 1454.43273273 50.37579150 78.01307481     6    136    0    0    0
C 1455.54671969 51.85389747 74.38914776     2    136   140   141   142
H 1457.55376552 51.28835298 74.74960131     6    139    0    0    0
H 1455.31406172 51.73612334 72.36809311     6    139    0    0    0
C 1455.13976517 54.65801286 75.05579063     2    139   143   144   145
H 1453.31444874 55.04199583 74.64474366     6    142    0    0    0
H 1455.43875230 54.85228394 77.05229809     6    142    0    0    0
C 1457.07440055 56.24845569 73.48562213     2    142   146   147   148
H 1459.02621253 55.31957751 73.67871666     6    145    0    0    0
H 1456.64929942 56.04586872 71.51308720     6    145    0    0    0
C 1457.05363987 59.13530042 73.91814373     2    145   149   150   151
H 1455.11947979 59.73015151 74.06993407     6    148    0    0    0
H 1457.89684304 59.80894302 75.65033445     6    148    0    0    0
C 1458.47039678 60.65103390 71.80745992     2    148   152   153   154
H 1460.44283472 60.27259418 71.91236754     6    151    0    0    0
H 1457.89545541 59.95871153 69.93454891     6    151    0    0    0
C 1457.75172272 63.45918340 71.83482898     2    151   155   156   157
H 1457.99766965 64.15044361 69.91859779     6    154    0    0    0
H 1455.74331966 63.64392263 72.19360353     6    154    0    0    0
C 1459.31942773 65.17178929 73.39570231     2    154   158   159   160
H 1459.31630208 64.46277372 75.37016535     6    157    0    0    0
H 1461.29229175 65.07819576 72.95298198     6    157    0    0    0
C 1457.95165527 67.78027581 73.39256292     1    157   161   162   163
H 1458.90375894 68.72803164 74.93142517     6    160    0    0    0
H 1455.94321238 67.50531601 73.87678362     6    160    0    0    0
H 1458.16180091 68.88581788 71.70087923     6    160    0    0    0
H 1461.49838121 39.60954348 71.81666747     6     165    0    0    0
C 1461.96410408 39.36996524 73.79170355     1     164    166    167    168
H 1460.86405420 37.76513346 74.50803752     6     165    0    0    0
H 1463.98766097 38.63882050 73.87425948     6     165    0    0    0
C 1461.29545832 41.74199526 75.22226257     2     165    169    170    171
H 1462.28556030 43.29355965 74.34715754     6     168    0    0    0
H 1459.30862106 41.97179241 74.89863019     6     168    0    0    0
C 1462.07194363 41.58508467 78.12374975     2     168    172   173   174
H 1461.65991723 39.66209522 78.91398492     6     171    0    0    0
H 1464.06472155 41.97198986 78.29498325     6     171    0    0    0
C 1460.49334496 43.51741172 79.63613402     2     171   175   176   177
H 1461.07249130 45.52923893 79.37971804     6    174    0    0    0
H 1458.55421384 43.25147860 78.83442392     6    174    0    0    0
C 1460.37262410 42.86509150 82.42190580     2    174   178   179   180
H 1458.53814064 41.77423468 82.68805900     6    177    0    0    0
H 1461.72583556 41.50458408 83.01991918     6    177    0    0    0
C 1460.40934865 45.26596797 84.06414808     2    177   181   182   183
H 1461.61387358 46.74939676 83.43842656     6    180    0    0    0
H 1458.68802280 46.25792826 83.69077235     6    180    0    0    0
C 1460.86898458 44.57298609 86.82737515     2    180   184   185   186
H 1459.20837828 43.66477606 87.52654601     6    183    0    0    0
H 1462.29831397 43.16525250 86.92205892     6    183    0    0    0
C 1461.49090342 46.92900729 88.49522297     2    183   187   188   189
H 1463.09743266 47.95696649 87.76590069     6    186    0    0    0
H 1460.04911838 48.37513598 88.40930360     6    186    0    0    0
C 1462.18156271 46.27804556 91.31544499     2    186   190   191   192
H 1460.68101998 45.36062004 92.55577589     6    189    0    0    0
H 1463.55016836 44.82522682 91.23801669     6    189    0    0    0
C 1463.05289399 48.50181452 92.93221650     2    189   193   194   195
H 1463.56897529 50.18719720 91.83912829     6    192    0    0    0
H 1461.30998181 49.00309571 94.10668275     6    192    0    0    0
C 1465.24937973 48.21419814 94.59688080     2    192   196   197   198
H 1464.65822487 46.70500685 95.99197142     6    195    0    0    0
H 1466.78086136 47.63021293 93.40219113     6    195    0    0    0
C 1465.96626427 50.43440201 96.33985707     1    195   199   200   201
H 1467.39084946 49.89928526 97.70156963     6    198    0    0    0
H 1464.43359949 51.29570454 97.32416708     6    198    0    0    0
H 1467.07339511 51.91368315 95.25716504     6    198    0    0    0
H 1480.55569957 44.49289548 78.81421341     6     203    0    0    0
C 1481.89246924 43.73948150 77.38301528     1     202    204    205    206
H 1482.89460725 42.14416156 78.38129050     6     203    0    0    0
H 1480.65761901 42.81505152 76.02843554     6     203    0    0    0
C 1483.43453047 45.75369623 76.05030711     2     203    207    208    209
H 1484.13950756 44.82001585 74.34855987     6     206    0    0    0
H 1482.08251414 47.21087679 75.55273339     6     206    0    0    0
C 1485.57492854 46.72258416 77.61104458     2     206    210   211   212
H 1486.30782588 48.24118569 76.47075479     6     209    0    0    0
H 1484.98869007 47.52587983 79.43859382     6     209    0    0    0
C 1487.58649664 44.72857105 78.14945619     2     209   213   214   215
H 1486.98936644 43.75914065 79.73432667     6    212    0    0    0
H 1487.70354210 43.20379630 76.80095867     6    212    0    0    0
C 1490.24471113 45.61483278 78.84973960     2    212   216   217   218
H 1491.65856881 44.22459842 78.95948856     6    215    0    0    0
H 1490.69338328 46.74977014 77.16281127     6    215    0    0    0
C 1490.17239536 47.19026966 81.43125416     2    215   219   220   221
H 1488.55227850 48.49736269 81.37520745     6    218    0    0    0
H 1489.81343440 45.80608745 83.03464199     6    218    0    0    0
C 1492.64008450 48.49491680 81.56718021     2    218   222   223   224
H 1494.08212498 46.98944724 81.71997860     6    221    0    0    0
H 1493.04921137 49.60641455 79.74838676     6    221    0    0    0
C 1493.07508502 50.18085894 83.92418199     2    221   225   226   227
H 1491.63801098 51.62445614 83.80269860     6    224    0    0    0
H 1492.65756366 49.11642383 85.69869983     6    224    0    0    0
C 1495.65395900 51.23928236 84.09756043     2    224   228   229   230
H 1496.97718523 49.68867117 84.07590032     6    227    0    0    0
H 1496.05742815 52.26383649 82.25672109     6    227    0    0    0
C 1496.20381015 53.14166913 86.34634468     2    227   231   232   233
H 1494.81591979 54.59164765 86.11865827     6    230    0    0    0
H 1495.94138202 52.31048485 88.27372561     6    230    0    0    0
C 1498.96129202 54.06433507 86.21492783     2    230   234   235   236
H 1500.12100354 52.57774496 86.98751707     6    233    0    0    0
H 1499.26743266 53.94216346 84.13814816     6    233    0    0    0
C 1499.84413608 56.65040387 87.41006804     1    233   237   238   239
H 1501.86801946 56.88899199 87.03782921     6    236    0    0    0
H 1499.77670564 56.68810670 89.37306149     6    236    0    0    0
H 1498.67750922 58.13095784 86.62223325     6    236    0    0    0
H 1492.28196627 41.59462450 51.44481581     6     241    0    0    0
C 1491.51886196 40.21575397 52.61834064     1     240    242    243    244
H 1493.26335096 39.86821285 53.78114035     6     241    0    0    0
H 1489.85430098 41.05323089 53.49076971     6     241    0    0    0
C 1490.83639514 38.02908047 50.86741926     2     241    245    246    247
H 1492.36184129 37.86594954 49.53665031     6     244    0    0    0
H 1490.91607751 36.28867404 51.92985050     6     244    0    0    0
C 1488.25505928 38.08410044 49.68523334     2     244    248   249   250
H 1488.08091741 36.39187341 48.72680647     6     247    0    0    0
H 1486.88532210 38.17814474 51.13867729     6     247    0    0    0
C 1488.00798379 40.29603836 47.86900709     2     247   251   252   253
H 1487.89557083 42.04183610 48.96420143     6    250    0    0    0
H 1489.60047868 40.50695305 46.72692469     6    250    0    0    0
C 1485.68149535 40.02522689 46.18218143     2    250   254   255   256
H 1486.03460286 38.24680952 45.15196947     6    253    0    0    0
H 1484.14264961 39.51829795 47.45071819     6    253    0    0    0
C 1484.89979096 42.47040537 44.70557328     2    253   257   258   259
H 1483.15219361 42.21704110 43.68280152     6    256    0    0    0
H 1484.41538122 43.81505101 46.11436560     6    256    0    0    0
C 1486.66979939 43.71542700 42.84334862     2    256   260   261   262
H 1488.33717823 44.25212940 43.60362889     6    259    0    0    0
H 1487.28319790 42.27902562 41.54238706     6    259    0    0    0
C 1485.36701382 45.78470505 41.17842667     2    259   263   264   265
H 1483.90292216 45.01404238 39.90701643     6    262    0    0    0
H 1484.38365839 47.22325745 42.25436060     6    262    0    0    0
C 1487.17190669 47.44114981 39.69018064     2    262   266   267   268
H 1486.89459303 49.53042352 40.06170005     6    265    0    0    0
H 1489.08363681 47.07532512 40.53817890     6    265    0    0    0
C 1487.23704489 46.99233388 36.91481029     2    265   269   270   271
H 1487.60137021 45.08795733 36.24787876     6    268    0    0    0
H 1485.40603161 47.36797763 36.28405226     6    268    0    0    0
C 1489.23388407 48.78599775 35.87009450     2    268   272   273   274
H 1489.15301627 50.78333073 36.59719988     6    271    0    0    0
H 1491.01739881 47.92849634 36.59708153     6    271    0    0    0
C 1489.42583211 48.78256475 32.86429963     1    271   275   276   277
H 1488.41491458 47.09419504 32.03451574     6    274    0    0    0
H 1491.39785283 48.71032255 32.40504232     6    274    0    0    0
H 1488.33894981 50.20222023 32.21574823     6    274    0    0    0
H 1481.61421063 33.74636660 66.16105817     6     279    0    0    0
C 1480.80251234 35.54148518 66.10293908     1     278    280    281    282
H 1480.45247621 35.71969927 64.10829256     6     279    0    0    0
H 1479.05108132 35.43970592 67.25453293     6     279    0    0    0
C 1482.50776102 37.67177370 67.04610041     2     279    283    284    285
H 1481.42223848 39.42921205 66.73502037     6     282    0    0    0
H 1482.71266572 37.82214534 69.06963581     6     282    0    0    0
C 1485.28730957 37.67655808 65.94574514     2     282    286   287   288
H 1486.07443187 36.05593329 67.06884553     6     285    0    0    0
H 1484.95955586 37.34506144 63.99883940     6     285    0    0    0
C 1486.80105844 39.96132477 66.66150990     2     285   289   290   291
H 1486.02450139 41.63422170 65.70945834     6    288    0    0    0
H 1486.81070481 40.37369555 68.64706868     6    288    0    0    0
C 1489.52241574 39.61405844 65.68845548     2    288   292   293   294
H 1490.11969208 37.77237091 66.32235502     6    291    0    0    0
H 1489.51975223 39.46635815 63.54447664     6    291    0    0    0
C 1491.26577037 41.76710446 66.29719537     2    291   295   296   297
H 1490.45621560 43.62519536 65.68730298     6    294    0    0    0
H 1491.33864444 41.85088342 68.43867957     6    294    0    0    0
C 1493.93315240 41.75958093 65.39916969     2    294   298   299   300

   16   -1830.5099383448      8.58E-09 Convergence criterion met
 Total energy in the final basis set = -1828.27409255
 Total job time:  15.83s(wall), 28.72s(cpu)
        *  Thank you very much for using Q-Chem.  Have a nice day.  *

User input: 2 of 2

                  Welcome to Q-Chem
     A Quantum Leap Into The Future Of Chemistry

 Q-Chem 5.4 (devel), Q-Chem, Inc., Pleasanton, CA (2021)

 E. Epifanovsky,  A. T. B. Gilbert,  Xintian Feng,  Joonho Lee,  Yuezhi Mao,
 N. Mardirossian,  P. Pokhilko,  A. White,  M. Wormit,  M. P. Coons,
 A. L. Dempwolff,  Zhengting Gan,  D. Hait,  P. R. Horn,  L. D. Jacobson,
 I. Kaliman,  J. Kussmann,  A. W. Lange,  Ka Un Lao,  D. S. Levine,  Jie Liu,
 S. C. McKenzie,  A. F. Morrison,  K. Nanda,  F. Plasser,  D. R. Rehn,
 M. L. Vidal,  Zhi-Qiang You,  Ying Zhu,  B. Alam,  B. Albrecht,
 A. Aldossary,  E. Alguire,  J. H. Andersen,  D. Barton,  K. Begam,  A. Behn,
 Y. A. Bernard,  E. J. Berquist,  H. Burton,  A. Carreras,  K. Carter-Fenk,
 R. Chakraborty,  A. D. Chien,  K. D. Closser,  V. Cofer-Shabica,
 S. Dasgupta,  Jia Deng,  M. de Wergifosse,  M. Diedenhofen,  Hainam Do,
 S. Ehlert,  Po-Tung Fang,  S. Fatehi,  Qingguo Feng,  T. Friedhoff,
 J. Gayvert,  Qinghui Ge,  G. Gidofalvi,  M. Goldey,  J. Gomes,
 C. Gonzalez-Espinoza,  S. Gulania,  A. Gunina,  M. W. D. Hanson-Heine,
 P. H. P. Harbach,  A. W. Hauser,  M. F. Herbst,  M. Hernandez Vera,
 M. Hodecker,  Z. C. Holden,  S. Houck,  Xunkun Huang,  Kerwin Hui,
 B. C. Huynh,  M. Ivanov,  Hyunjun Ji,  Hanjie Jiang,  B. Kaduk,  S. Kaehler,
 K. Khistyaev,  Jaehoon Kim,  P. Klunzinger,  Z. Koczor-Benda,
 Joong Hoon Koh,  D. Kosenkov,  L. Koulias,  T. Kowalczyk,  C. M. Krauter,
 K. Kue,  A. Kunitsa,  T. Kus,  A. Landau,  K. V. Lawler,  D. Lefrancois,
 S. Lehtola,  Rain Li,  Yi-Pei Li,  Jiashu Liang,  M. Liebenthal,
 Hung-Hsuan Lin,  You-Sheng Lin,  Fenglai Liu,  Kuan-Yu Liu,
 M. Loipersberger,  A. Luenser,  A. Manjanath,  P. Manohar,  E. Mansoor,
 S. F. Manzer,  Shan-Ping Mao,  A. V. Marenich,  T. Markovich,  S. Mason,
 S. A. Maurer,  P. F. McLaughlin,  M. F. S. J. Menger,  J.-M. Mewes,
 S. A. Mewes,  P. Morgante,  J. W. Mullinax,  K. J. Oosterbaan,  G. Paran,
 Alexander C. Paul,  Suranjan K. Paul,  F. Pavosevic,  Zheng Pei,  S. Prager,
 E. I. Proynov,  E. Ramos,  B. Rana,  A. E. Rask,  A. Rettig,  R. M. Richard,
 F. Rob,  E. Rossomme,  T. Scheele,  M. Scheurer,  M. Schneider,
 N. Sergueev,  S. M. Sharada,  W. Skomorowski,  D. W. Small,  C. J. Stein,
 Yu-Chuan Su,  E. J. Sundstrom,  Zhen Tao,  J. Thirman,  T. Tsuchimochi,
 N. M. Tubman,  S. P. Veccham,  O. Vydrov,  J. Wenzel,  J. Witte,  A. Yamada,
 Kun Yao,  S. Yeganeh,  S. R. Yost,  A. Zech,  Igor Ying Zhang,  Xing Zhang,
 Yu Zhang,  D. Zuev,  A. Aspuru-Guzik,  A. T. Bell,  N. A. Besley,
 K. B. Bravaya,  B. R. Brooks,  D. Casanova,  Jeng-Da Chai,  S. Coriani,
 C. J. Cramer,  A. E. DePrince, III,  R. A. DiStasio Jr.,  A. Dreuw,
 B. D. Dunietz,  T. R. Furlani,  W. A. Goddard III,  S. Grimme,
 S. Hammes-Schiffer,  T. Head-Gordon,  W. J. Hehre,  Chao-Ping Hsu,
 T.-C. Jagau,  Yousung Jung,  A. Klamt,  Jing Kong,  D. S. Lambrecht,
 WanZhen Liang,  N. J. Mayhall,  C. W. McCurdy,  J. B. Neaton,
 C. Ochsenfeld,  J. A. Parkhill,  R. Peverati,  V. A. Rassolov,  Yihan Shao,
 L. V. Slipchenko,  T. Stauch,  R. P. Steele,  J. E. Subotnik,
 A. J. W. Thom,  A. Tkatchenko,  D. G. Truhlar,  T. Van Voorhis,
 T. A. Wesolowski,  K. B. Whaley,  H. L. Woodcock III,  P. M. Zimmerman,
 S. Faraji,  P. M. W. Gill,  M. Head-Gordon,  J. M. Herbert,  A. I. Krylov

 Additional authors for Version 5.4.1:
 S. Kotaru,  Shaozhi Li,  Xiangyuan Li,  F. Matz,  A. Molle,  Haisheng Ren,
 Yingli Su,  Hung-Yi Tsai,  C. Utku,  Fang Wang

 Contributors to earlier versions of Q-Chem not listed above:
 R. D. Adamson,  B. Austin,  R. Baer,  J. Baker,  G. J. O. Beran,
 K. Brandhorst,  S. T. Brown,  E. F. C. Byrd,  A. K. Chakraborty,
 G. K. L. Chan,  Chun-Min Chang,  Yunqing Chen,  C.-L. Cheng,
 Siu Hung Chien,  D. M. Chipman,  D. L. Crittenden,  H. Dachsel,
 R. J. Doerksen,  A. D. Dutoi,  R. G. Edgar,  J. Fosso-Tande,
 L. Fusti-Molnar,  D. Ghosh,  A. Ghysels,  A. Golubeva-Zadorozhnaya,
 J. Gonthier,  M. S. Gordon,  S. R. Gwaltney,  G. Hawkins,  J. E. Herr,
 A. Heyden,  S. Hirata,  E. G. Hohenstein,  G. Kedziora,  F. J. Keil,
 C. Kelley,  Jihan Kim,  R. A. King,  R. Z. Khaliullin,  P. P. Korambath,
 W. Kurlancheek,  A. Laurent,  A. M. Lee,  M. S. Lee,  S. V. Levchenko,
 Ching Yeh Lin,  D. Liotard,  E. Livshits,  R. C. Lochan,  I. Lotan,
 L. A. Martinez-Martinez,  P. E. Maslen,  N. Nair,  D. P. O'Neill,
 D. Neuhauser,  E. Neuscamman,  C. M. Oana,  R. Olivares-Amaya,  R. Olson,
 T. M. Perrine,  B. Peters,  P. A. Pieniazek,  A. Prociuk,  Y. M. Rhee,
 J. Ritchie,  M. A. Rohrdanz,  E. Rosta,  N. J. Russ,  H. F. Schaefer III,
 M. W. Schmidt,  N. E. Schultz,  S. Sharma,  N. Shenvi,  C. D. Sherrill,
 A. C. Simmonett,  A. Sodt,  T. Stein,  D. Stuck,  K. S. Thanthiriwatte,
 V. Vanovschi,  L. Vogt,  Tao Wang,  A. Warshel,  M. A. Watson,
 C. F. Williams,  Q. Wu,  X. Xu,  Jun Yang,  W. Zhang,  Yan Zhao

 Please cite Q-Chem as follows:
 Y. Shao et al., Mol. Phys. 113, 184-215 (2015)
 DOI: 10.1080/00268976.2014.952696

 Q-Chem 5.4.1 for Intel X86 EM64T Linux

 Parts of Q-Chem use Armadillo 9.900.5 (Nocturnal Misbehaviour).
 http://arma.sourceforge.net/

 Q-Chem begins on Wed Jun 22 16:41:40 2022

 Host: p09r14n13.grace.hpc.yale.internal
0

     Scratch files written to /home/tl686/scratch60/qchem_dev/scratch/qchem247514//
 Processing $rem in /home/tl686/qchem_dev/qchem/config/preferences:
 Processing $rem in /home/tl686/.qchemrc:
Applying user defined connections for MM calculations
The previous job contains 0 fragments, simply inherited here

 Checking the input file for inconsistencies... 	...done.

--------------------------------------------------------------
User input:
--------------------------------------------------------------

$molecule
READ
$end

$qm_atoms
1:11
$end

$force_field_params
NumAtomTypes 3
AtomType -1   0.0238     3.11   0.2868
AtomType -2   0.07124    3.30   0.6597
AtomType -3  -0.0760     3.09   0.1434
$end

$rem
     JOBTYPE  freq
     METHOD   bp86
     BASIS    def2-msvp
     MAX_SCF_CYCLES   800
     INPUT_BOHR TRUE
     SYM_IGNORE TRUE
     SCF_GUESS     read
     user_connect            true
     qm_mm_interface         ONIOM
     force_field             oplsaa
$end

--------------------------------------------------------------

    2   -1830.5099383446      9.09E-09 Convergence criterion met
 Total energy in the final basis set = -1828.27409255

                    Orbital Energies (a.u.)
 --------------------------------------------------------------

 Alpha MOs
 -- Occupied --
******** -29.6377 -25.5965 -25.5866 -25.5801 -18.9004 -18.8859 -18.8853
-18.8737 -18.8580 -10.0609 -10.0583 -10.0472 -10.0394 -10.0375  -3.3224
 -2.1554  -2.1381  -2.1241  -1.0882  -1.0801  -1.0561  -1.0480  -0.9925
 -0.5767  -0.5326  -0.5222  -0.5153  -0.5111  -0.4604  -0.4594  -0.4491
 -0.4457  -0.4400  -0.4351  -0.4295  -0.4206  -0.4148  -0.4146  -0.4042
 -0.3967  -0.3889  -0.3761  -0.3727  -0.2778  -0.2715  -0.2412  -0.2186

          Ground-State Mulliken Net Atomic Charges

     Atom                 Charge (a.u.)
  ----------------------------------------
      1 Fe                   -0.509905
      2 C                     0.216382
      3 C                     0.192629
      4 C                     0.231314
      5 C                     0.192135
      6 C                     0.241784
      7 O                    -0.068302
      8 O                    -0.116552
      9 O                    -0.188574
     10 O                    -0.074984
     11 O                    -0.115928
  ----------------------------------------
  Sum of atomic charges =     0.000000

                    Cartesian Multipole Moments
 -----------------------------------------------------------------
    Charge (ESU x 10^10)
                -0.0000
    Dipole Moment (Debye)
         X       1.1542054372      Y      -0.6077958116      Z      -0.1649003490
       Tot       1.3148376573
    Quadrupole Moments (Debye-Ang)
        XX    1729.4185     XY    -432.5994     YY    -113.3621
        XZ     -91.9282     YZ     -24.7298     ZZ     -78.4306
