 Q-Chem 5.4 (devel), Q-Chem, Inc., Pleasanton, CA (2021)
 Q-Chem 5.4.1 for Intel X86 EM64T Linux

User input:
--------------------------------------------------------------
$molecule
0   1
Fe 1477.56437193 68.67872160 60.61664498    -1  0   0   0   0
C 1477.72797670 67.16452625 57.47948033    -2  0   0   0   0
C 1476.76952694 69.52259429 63.93310539    -2  0   0   0   0
C 1474.45675905 69.52158714 59.86484957    -2  0   0   0   0
C 1478.43126266 65.57146921 61.58280345    -2  0   0   0   0
C 1480.26841946 70.80545333 60.00103828    -2  0   0   0   0
O 1477.99428694 65.89874285 55.76629916    -3  0   0   0   0
O 1476.04033357 69.88159929 66.00980035    -3  0   0   0   0
O 1472.30854952 69.74334667 59.38767580    -3  0   0   0   0
O 1478.90952943 63.52700057 62.37330066    -3  0   0   0   0
O 1482.18346195 71.87720010 59.71855001    -3  0   0   0   0
H 1455.61571141 51.35949395 51.30588617      6     13    0    0    0
C 1456.26410004 51.75228009 49.32657981     1     12    14    15    16
H 1454.58705704 51.44954717 48.28915677     6     13    0    0    0
H 1456.90177213 53.62532000 49.36524095     6     13    0    0    0
C 1458.42223721 49.86466823 48.64936122     2     13    17    18    19
H 1457.68585662 47.93690768 48.75269375     6     16    0    0    0
H 1458.67332842 49.83608635 46.54342568     6     16    0    0    0
C 1460.95347188 50.15816850 49.99235874     2     16    20   21   22
H 1461.33661067 52.10100694 49.36133256     6     19    0    0    0
H 1460.66611556 50.05199901 52.00054098     6     19    0    0    0
C 1462.98197155 48.10785994 49.39294201     2     19   23   24   25
H 1462.76102695 46.32381625 50.39334162     6    22    0    0    0
H 1462.80778818 47.71966697 47.27038702     6    22    0    0    0
C 1465.66028583 48.82892518 49.83633060     2    22   26   27   28
H 1466.14856100 50.81705794 49.10507286     6    25    0    0    0
H 1466.08854032 48.90737419 51.81561222     6    25    0    0    0
C 1467.59597836 46.95918464 48.64534790     2    25   29   30   31
H 1467.26516575 45.06789412 49.38634080     6    28    0    0    0
H 1467.55663342 46.80427660 46.62738808     6    28    0    0    0
C 1470.25852589 47.86266216 49.17678783     2    28   32   33   34
H 1470.44548268 49.72756618 48.18864152     6    31    0    0    0
H 1470.59168930 48.29058464 51.15954173     6    31    0    0    0
C 1472.18219293 46.12305017 47.85587930     2    31   35   36   37
H 1471.62375963 44.18729602 48.27811521     6    34    0    0    0
H 1472.23806888 46.43417468 45.89045398     6    34    0    0    0
C 1474.99053439 46.48392926 48.86064084     2    34   38   39   40
H 1475.54989153 48.39913910 48.06998569     6    37    0    0    0
H 1475.07184613 46.85463236 50.95953445     6    37    0    0    0
C 1476.89801790 44.29838878 48.18506743     2    37   41   42   43
H 1476.35307551 42.69473499 49.12469956     6    40    0    0    0
H 1476.86059652 43.78525586 46.24038470     6    40    0    0    0
C 1479.47544282 45.06276405 49.11474896     2    40   44   45   46
H 1480.29316818 46.56004279 47.93558522     6    43    0    0    0
H 1479.36276467 45.73919307 50.98961047     6    43    0    0    0
C 1481.51298865 43.07572045 48.83689132     1    43   47   48   49
H 1481.11701427 41.51267130 50.19988017     6    46    0    0    0
H 1483.23003909 44.14046605 49.30326093     6    46    0    0    0
H 1481.73676042 42.33834357 46.88682908     6    46    0    0    0
H 1482.91088689 59.45419315 56.03300061     6     51    0    0    0
C 1481.30548580 60.59562528 56.73575070     1     50    52    53    54
H 1481.34044815 61.33771501 58.68776454     6     51    0    0    0
H 1481.33337656 62.30744701 55.43944862     6     51    0    0    0
C 1478.70108819 59.30926031 56.39565627     2     51    55    56    57
H 1477.21615634 60.35303849 57.40669646     6     54    0    0    0
H 1477.99773743 59.54695580 54.41129557     6     54    0    0    0
C 1478.55821270 56.57811268 57.32321216     2     54    58   59   60
H 1479.41430414 56.37159058 59.16271935     6     57    0    0    0
H 1476.67618924 56.19740059 57.74311157     6     57    0    0    0
C 1479.78646029 54.63525413 55.55337291     2     57   61   62   63
H 1479.13144851 54.83027000 53.59530083     6    60    0    0    0
H 1481.85137158 55.01197488 55.50438961     6    60    0    0    0
C 1479.28164411 51.98023844 56.27231915     2    60   64   65   66
H 1479.89772792 51.62967789 58.24108059     6    63    0    0    0
H 1477.24988689 51.68395727 56.26877477     6    63    0    0    0
C 1480.62561108 50.11644671 54.55385583     2    63   67   68   69
H 1479.92268386 48.27597282 55.18891838     6    66    0    0    0
H 1480.02058271 50.36834157 52.68839347     6    66    0    0    0
C 1483.51315616 50.27026246 54.82373306     2    66   70   71   72
H 1484.43209798 52.20744578 54.76537259     6    69    0    0    0
H 1484.10920810 49.62651059 56.65446100     6    69    0    0    0
C 1484.98891326 48.68104260 52.94876915     2    69   73   74   75
H 1484.48343416 46.83108337 53.20251479     6    72    0    0    0
H 1484.33590525 49.17048721 51.11885570     6    72    0    0    0
C 1487.77466911 49.13996891 53.33602472     2    72   76   77   78
H 1488.41892720 51.01584678 52.72698502     6    75    0    0    0
H 1488.34065007 49.35146320 55.29231424     6    75    0    0    0
C 1489.42404859 47.36475468 51.88833479     2    75   79   80   81
H 1489.62450885 45.63924189 52.95245890     6    78    0    0    0
H 1488.24604727 46.78595647 50.26378998     6    78    0    0    0
C 1492.00959128 48.42676927 51.15696757     2    78   82   83   84
H 1491.85813691 49.99208814 49.91478818     6    81    0    0    0
H 1493.00197249 49.12692202 52.75820181     6    81    0    0    0
C 1493.50555390 46.36290011 50.02100946     1    81   85   86   87
H 1495.38096463 46.90585250 49.44862094     6    84    0    0    0
H 1492.78715710 45.47547429 48.32439966     6    84    0    0    0
H 1493.91061419 44.84122559 51.35397890     6    84    0    0    0
H 1458.94180595 45.20657669 66.95181934     6     89    0    0    0
C 1458.81444843 43.25987811 66.48002376     1     88    90    91    92
H 1459.27425838 41.99786884 68.10992270     6     89    0    0    0
H 1456.95853510 42.78253606 65.79827272     6     89    0    0    0
C 1460.46607937 42.63419911 64.18445560     2     89    93    94    95
H 1459.70256610 43.22499064 62.40827576     6     92    0    0    0
H 1462.27533239 43.70580004 64.23535911     6     92    0    0    0
C 1461.14537901 39.73596501 64.20663248     2     92    96   97   98
H 1462.04243369 39.17854042 65.89714805     6     95    0    0    0
H 1459.38675820 38.55787914 63.80612611     6     95    0    0    0
C 1462.80247863 39.28784672 61.91657759     2     95   99   100   101
H 1461.87834341 40.26124201 60.33836840     6    98    0    0    0
H 1464.56001165 40.20728378 62.19607860     6    98    0    0    0
C 1463.42272738 36.52152509 61.42884210     2    98   102   103   104
H 1464.53400676 35.66095630 63.01986225     6    101    0    0    0
H 1461.74116485 35.44348499 61.21118770     6    101    0    0    0
C 1464.71732586 36.23582928 58.88901572     2    101   105   106   107
H 1463.49980279 36.78222381 57.34527350     6    104    0    0    0
H 1466.27225488 37.45882785 58.61507233     6    104    0    0    0
C 1465.72541016 33.59018391 58.75696244     2    104   108   109   110
H 1466.91339342 33.16798686 60.27007884     6    107    0    0    0
H 1463.99741014 32.53524409 58.82531813     6    107    0    0    0
C 1467.00578519 32.86777357 56.30209562     2    107   111   112   113
H 1465.68262290 32.62293685 54.73071167     6    110    0    0    0
H 1468.22359487 34.45600250 55.57150577     6    110    0    0    0
C 1468.42754894 30.46971353 56.55411629     2    110   114   115   116
H 1469.76008128 30.94228247 57.97521738     6    113    0    0    0
H 1467.44907473 28.81055572 57.41939634     6    113    0    0    0
C 1469.54695832 29.66928313 54.03532809     2    113   117   118   119
H 1468.13781396 29.45676774 52.51416663     6    116    0    0    0
H 1470.61797090 31.33304651 53.48172187     6    116    0    0    0
C 1471.31756271 27.36477451 54.39984404     2    116   120   121   122
H 1472.53088134 27.25418189 52.70191150     6    119    0    0    0
H 1472.53788620 27.45260241 56.12502344     6    119    0    0    0
C 1469.66845790 24.91613275 54.24572331     1    119   123   124   125
H 1471.04172545 23.41336006 54.80310612     6    122    0    0    0
H 1469.01736109 24.69285235 52.35309756     6    122    0    0    0
H 1468.37719237 25.01327890 55.76854849     6    122    0    0    0
H 1451.33664452 43.03052404 70.42334618     6     127    0    0    0
C 1451.84102448 43.08921459 72.41690423     1     126    128    129    130
H 1450.42228036 42.04765888 73.43711672     6     127    0    0    0
H 1453.64716461 42.10941140 72.72413382     6     127    0    0    0
C 1452.07050501 45.83964135 73.11709446     2     127    131    132    133
H 1453.86828818 46.39156141 72.40524192     6     130    0    0    0
H 1450.81609350 47.11398877 72.09646493     6     130    0    0    0
C 1452.18470231 46.57008528 75.88037807     2     130    134   135   136
H 1450.57641472 45.55630477 76.75463071     6     133    0    0    0
H 1453.73560797 45.56626175 76.73906810     6     133    0    0    0
C 1452.40562239 49.47865607 76.28388503     2     133   137   138   139
H 1450.90120262 50.22622766 75.20918805     6    136    0    0    0
H 1451.79612571 49.92098423 78.27492716     6    136    0    0    0
C 1455.02216765 50.72757846 75.45716999     2    136   140   141   142
H 1456.48535833 50.38985694 76.91149698     6    139    0    0    0
H 1455.83919589 49.79110058 73.92759702     6    139    0    0    0
C 1454.64279353 53.49186608 75.03785475     2    139   143   144   145
H 1453.84151135 53.86669571 73.27736052     6    142    0    0    0
H 1453.47009745 54.46968692 76.42100963     6    142    0    0    0
C 1457.13145568 54.88318551 74.96294122     2    142   146   147   148
H 1457.68081877 54.63237019 76.97326101     6    145    0    0    0
H 1458.58680142 53.90419322 73.95858493     6    145    0    0    0
C 1457.00144178 57.66256166 74.09210068     2    145   149   150   151
H 1455.98906329 57.66651960 72.42563345     6    148    0    0    0
H 1455.94458399 58.58821332 75.49072857     6    148    0    0    0
C 1459.38942186 59.10768131 73.79458989     2    148   152   153   154
H 1460.25966877 59.12721312 75.68809267     6    151    0    0    0
H 1460.76201400 58.04032679 72.65802365     6    151    0    0    0
C 1459.05616421 61.79071759 72.60990002     2    151   155   156   157
H 1460.80288471 62.82171613 72.19651589     6    154    0    0    0
H 1458.01152360 61.45630017 70.92668055     6    154    0    0    0
C 1457.37243137 63.79512912 74.18985942     2    154   158   159   160
H 1455.92614984 62.74902499 75.16966547     6    157    0    0    0
H 1458.67116923 64.63185971 75.69328140     6    157    0    0    0
C 1455.80546303 65.70314498 72.57899106     1    157   161   162   163
H 1455.08215191 67.24054822 73.78324790     6    160    0    0    0
H 1454.04275448 64.80967807 71.89183480     6    160    0    0    0
H 1456.93871246 66.39006686 70.93975777     6    160    0    0    0
H 1456.34175826 38.86665441 72.64271198     6     165    0    0    0
C 1457.93855459 38.81351211 74.03968650     1     164    166    167    168
H 1457.70422620 37.31700231 75.44857520     6     165    0    0    0
H 1459.74309123 38.50923295 73.27854270     6     165    0    0    0
C 1458.09526288 41.27679005 75.51398393     2     165    169    170    171
H 1457.98221403 42.90372817 74.17450297     6     168    0    0    0
H 1456.44825597 41.24320108 76.69126526     6     168    0    0    0
C 1460.38863734 41.55562612 77.45943873     2     168    172   173   174
H 1460.79732451 39.84189263 78.30931829     6     171    0    0    0
H 1461.93827943 42.42646955 76.52921266     6     171    0    0    0
C 1459.60411188 43.32647773 79.64137479     2     171   175   176   177
H 1459.14475156 45.08276511 78.79579586     6    174    0    0    0
H 1457.96589580 42.60527663 80.74244352     6    174    0    0    0
C 1461.67099129 43.76178254 81.77252154     2    174   178   179   180
H 1462.24419712 42.01499964 82.50568351     6    177    0    0    0
H 1463.36876151 44.67472776 80.97094274     6    177    0    0    0
C 1460.79325764 45.52348042 83.94390112     2    177   181   182   183
H 1460.04508174 47.37132704 83.33578012     6    180    0    0    0
H 1459.38075583 44.49046339 85.07077607     6    180    0    0    0
C 1463.08408554 45.89454679 85.85590040     2    180   184   185   186
H 1463.99238767 44.20229092 86.50898991     6    183    0    0    0
H 1464.66569505 47.02856479 84.90809259     6    183    0    0    0
C 1462.00055857 47.21837431 88.29875079     2    183   187   188   189
H 1460.97816431 48.82387475 87.69715223     6    186    0    0    0
H 1460.42547823 46.11911401 89.10347130     6    186    0    0    0
C 1463.89622828 47.88821589 90.27785456     2    186   190   191   192
H 1464.25351608 46.32104276 91.25330586     6    189    0    0    0
H 1465.73021356 48.45697991 89.67729586     6    189    0    0    0
C 1462.57618727 49.94314642 91.94701992     2    189   193   194   195
H 1462.17635923 51.40926094 90.63547608     6    192    0    0    0
H 1460.85005582 49.19995879 92.84388856     6    192    0    0    0
C 1464.17447193 50.77291350 94.25958807     2    192   196   197   198
H 1464.63872755 49.20210475 95.40592258     6    195    0    0    0
H 1465.95152553 51.51890061 93.76652262     6    195    0    0    0
C 1462.84346990 52.72626204 95.81991541     1    195   199   200   201
H 1464.17850332 53.12571011 97.39358604     6    198    0    0    0
H 1461.18905472 51.80215738 96.89856179     6    198    0    0    0
H 1462.21402696 54.45075591 94.92450687     6    198    0    0    0
H 1483.52076471 43.75302440 73.87502271     6     203    0    0    0
C 1482.62306933 43.47868547 75.72553555     1     202    204    205    206
H 1482.67543356 45.30393347 76.61550464     6     203    0    0    0
H 1480.68088472 42.72130210 75.42843814     6     203    0    0    0
C 1484.01136300 41.61625475 77.55524185     2     203    207    208    209
H 1483.14144314 41.76888263 79.43949161     6     206    0    0    0
H 1483.65658818 39.80858153 76.59205363     6     206    0    0    0
C 1486.79571818 42.12770365 77.69973903     2     206    210   211   212
H 1487.93816201 40.33186273 77.78023425     6     209    0    0    0
H 1487.56475338 42.80129209 75.88387070     6     209    0    0    0
C 1487.69790561 43.95935469 79.71195800     2     209   213   214   215
H 1486.42668288 45.55686356 79.91605984     6    212    0    0    0
H 1487.51022757 42.84044860 81.39710863     6    212    0    0    0
C 1490.35857695 44.74134488 79.30462482     2    212   216   217   218
H 1491.64334345 43.33204140 78.45163308     6    215    0    0    0
H 1490.32684025 46.24825949 77.87370038     6    215    0    0    0
C 1491.58127468 45.72287217 81.77139543     2    215   219   220   221
H 1490.52187594 47.43191744 82.38685174     6    218    0    0    0
H 1491.24560730 44.30611757 83.18372199     6    218    0    0    0
C 1494.27259404 46.67118213 81.42394977     2    218   222   223   224
H 1495.64307720 45.14845256 81.01175765     6    221    0    0    0
H 1494.18731762 47.71570398 79.65822753     6    221    0    0    0
C 1495.16839367 48.24158182 83.65068833     2    221   225   226   227
H 1493.94746154 49.76504970 84.18679180     6    224    0    0    0
H 1495.24153609 46.93332061 85.23576359     6    224    0    0    0
C 1497.83692412 49.33430338 83.09357917     2    224   228   229   230
H 1499.30004221 47.90068966 82.45738596     6    227    0    0    0
H 1497.75690975 50.66682890 81.51445241     6    227    0    0    0
C 1498.86744354 50.50424411 85.64439356     2    227   231   232   233
H 1497.46384062 51.83827722 86.42069651     6    230    0    0    0
H 1498.99378474 48.94258860 86.95284436     6    230    0    0    0
C 1501.31449553 51.96972821 85.63597854     2    230   234   235   236
H 1502.76276618 50.76087951 84.96583813     6    233    0    0    0
H 1501.07081461 53.41843911 84.22782400     6    233    0    0    0
C 1501.95425841 53.35565263 88.18548586     1    233   237   238   239
H 1503.77713777 54.20735297 87.76086768     6    236    0    0    0
H 1502.06378858 52.11259100 89.79221782     6    236    0    0    0
H 1500.63736730 54.92843932 88.56208862     6    236    0    0    0
H 1494.35720501 38.95587338 46.92343545     6     241    0    0    0
C 1493.87965675 37.15087062 47.97849272     1     240    242    243    244
H 1494.67239715 35.55558044 47.09517226     6     241    0    0    0
H 1494.81686148 37.16872078 49.87228395     6     241    0    0    0
C 1491.07624660 36.67364945 47.81094858     2     241    245    246    247
H 1490.56908650 36.46819840 45.78825247     6     244    0    0    0
H 1490.53271147 34.72090804 48.49090306     6     244    0    0    0
C 1489.36251633 38.66545987 49.02829365     2     244    248   249   250
H 1487.50525091 37.76404020 49.30186539     6     247    0    0    0
H 1490.00318018 39.19734174 50.86690535     6     247    0    0    0
C 1489.18124958 41.16535763 47.43073988     2     247   251   252   253
H 1488.59751372 42.81275190 48.57230060     6    250    0    0    0
H 1491.18550968 41.55324989 46.82652695     6    250    0    0    0
C 1487.43643986 40.78277594 45.26727724     2    250   254   255   256
H 1488.37638640 39.45468083 44.10166693     6    253    0    0    0
H 1485.61114094 40.06428760 45.67699282     6    253    0    0    0
C 1487.05217389 43.00039505 43.53011895     2    253   257   258   259
H 1485.64915394 42.47203523 42.14502286     6    256    0    0    0
H 1486.18836717 44.55303900 44.62414870     6    256    0    0    0
C 1489.42432658 43.78145874 42.08546070     2    256   260   261   262
H 1491.00814947 44.08030791 43.23748391     6    259    0    0    0
H 1489.99248652 42.13321672 40.92873325     6    259    0    0    0
C 1488.88749375 45.86072499 40.13285030     2    259   263   264   265
H 1487.24414927 45.30175045 39.05678043     6    262    0    0    0
H 1488.23152644 47.70072984 40.77521796     6    262    0    0    0
C 1490.97244744 46.45933246 38.23659052     2    262   266   267   268
H 1490.41489091 48.07823079 37.38585233     6    265    0    0    0
H 1492.64024840 47.07449892 38.99458602     6    265    0    0    0
C 1491.41285188 44.27913032 36.35085378     2    265   269   270   271
H 1492.11386460 42.67448365 37.46099318     6    268    0    0    0
H 1489.64787850 43.68018305 35.17452615     6    268    0    0    0
C 1493.21289774 45.06674097 34.24771465     2    268   272   273   274
H 1492.35829730 46.49810034 33.12003524     6    271    0    0    0
H 1494.97018674 45.92709843 34.72970829     6    271    0    0    0
C 1493.41862731 42.91905858 32.28067865     1    271   275   276   277
H 1493.78223801 41.32867831 33.21808658     6    274    0    0    0
H 1495.01767204 43.17868048 31.06370398     6    274    0    0    0
H 1491.71767909 42.59416423 31.02341223     6    274    0    0    0
H 1480.68121603 34.45561569 65.14110128     6     279    0    0    0
C 1479.54256944 36.23938519 65.38325380     1     278    280    281    282
H 1479.10304901 37.15242092 63.54004730     6     279    0    0    0
H 1477.79741588 35.79789024 66.41671025     6     279    0    0    0
C 1481.40114162 38.03496931 66.36869405     2     279    283    284    285
H 1480.58267341 39.85095197 65.85471425     6     282    0    0    0
H 1481.66912178 38.06190817 68.47841522     6     282    0    0    0
C 1484.01958298 37.82764371 65.24005214     2     282    286   287   288
H 1484.86843432 36.01575298 65.12199061     6     285    0    0    0
H 1483.88066242 38.36062358 63.17811840     6     285    0    0    0
C 1485.91154560 39.72139437 66.56834431     2     285   289   290   291
H 1485.11891387 41.65199162 66.13095530     6    288    0    0    0
H 1485.69608929 39.58750901 68.72208053     6    288    0    0    0
C 1488.56603942 39.60533761 65.48690577     2    288   292   293   294
H 1489.27966374 37.66626725 65.76562507     6    291    0    0    0
H 1488.63285561 39.48367405 63.45621517     6    291    0    0    0
C 1490.36890255 41.66434450 66.42937544     2    291   295   296   297
H 1489.88763416 43.44238166 65.81808627     6    294    0    0    0
H 1490.25126334 41.83329146 68.42924388     6    294    0    0    0
C 1493.21970295 40.92308478 65.85273752     2    294   298   299   300

   17   -1830.5162506040      4.36E-09 Convergence criterion met
 Total energy in the final basis set = -1828.26735465

                    Orbital Energies (a.u.)
 --------------------------------------------------------------

 Alpha MOs
 -- Occupied --
******** -29.6371 -25.5963 -25.5854 -25.5799 -18.8993 -18.8884 -18.8769
-18.8711 -18.8692 -10.0651 -10.0595 -10.0435 -10.0407 -10.0387  -3.3215
 -2.1544  -2.1364  -2.1236  -1.0875  -1.0509  -1.0442  -1.0402  -1.0322
 -0.5763  -0.5324  -0.5193  -0.5160  -0.5135  -0.4609  -0.4535  -0.4512
 -0.4368  -0.4300  -0.4228  -0.4196  -0.4144  -0.4103  -0.4087  -0.4047
 -0.4017  -0.3978  -0.3955  -0.3780  -0.2787  -0.2673  -0.2303  -0.2285

          Ground-State Mulliken Net Atomic Charges

     Atom                 Charge (a.u.)
  ----------------------------------------
      1 Fe                   -0.463930
      2 C                     0.199084
      3 C                     0.216026
      4 C                     0.187502
      5 C                     0.211976
      6 C                     0.227181
      7 O                    -0.072965
      8 O                    -0.119287
      9 O                    -0.129289
     10 O                    -0.138533
     11 O                    -0.117765
  ----------------------------------------
  Sum of atomic charges =     0.000000

                    Cartesian Multipole Moments
 -----------------------------------------------------------------
    Charge (ESU x 10^10)
                -0.0000
    Dipole Moment (Debye)
         X       0.0928995637      Y       0.1771774997      Z      -0.5779103484
       Tot       0.6115574921
    Quadrupole Moments (Debye-Ang)
        XX      73.8495     XY     141.9977     YY     -57.1167
        XZ    -448.8645     YZ     -14.3724     ZZ    -104.7364

 Total job time:  29.21s(wall), 26.61s(cpu)
        *  Thank you very much for using Q-Chem.  Have a nice day.  *
