 Q-Chem 5.4 (devel), Q-Chem, Inc., Pleasanton, CA (2021)
 Q-Chem 5.4.1 for Intel X86 EM64T Linux

User input:
--------------------------------------------------------------
$molecule
0   1
 Fe 1477.18734741 -16.97465198 3.00585257    -1  0   0   0   0
C 1473.74564862 -17.16678264 3.59012748    -2  0   0   0   0
C 1478.47461394 -15.48683896 0.23460184    -2  0   0   0   0
C 1479.16420694 -18.27360825 5.70971954    -2  0   0   0   0
C 1477.30337568 -19.81944207 1.23534665    -2  0   0   0   0
C 1477.40625119 -14.02492255 4.88737143    -2  0   0   0   0
O 1471.52601016 -17.33886935 3.91169418    -3  0   0   0   0
O 1479.31103485 -14.54186081 -1.60849272    -3  0   0   0   0
O 1480.44192213 -19.31901360 7.11373888    -3  0   0   0   0
O 1477.61558223 -21.47442080 -0.27137394    -3  0   0   0   0
O 1477.11264812 -11.94915807 5.64477728    -3  0   0   0   0
H 1460.01026706 -39.91091418 18.57050239      6     13    0    0    0
C 1459.39233036 -39.82760693 16.58498166     1     12    14    15    16
H 1457.40738199 -40.41154536 16.78911410     6     13    0    0    0
H 1459.58586220 -37.97227447 15.90817115     6     13    0    0    0
C 1461.27980739 -41.76281172 15.34523896     2     13    17    18    19
H 1461.15407798 -43.47783671 16.32791298     6     16    0    0    0
H 1460.52635801 -42.56404273 13.55832528     6     16    0    0    0
C 1464.04006620 -40.81563053 15.16950874     2     16    20   21   22
H 1464.04874174 -38.89776246 14.45049449     6     19    0    0    0
H 1464.71649620 -40.76787776 17.10945231     6     19    0    0    0
C 1465.68411439 -42.50599497 13.43473041     2     19   23   24   25
H 1465.58054201 -44.30700443 14.21281892     6    22    0    0    0
H 1464.87898649 -43.03448150 11.82067452     6    22    0    0    0
C 1468.42182922 -41.52550010 13.45282632     2    22   26   27   28
H 1468.61847864 -39.45764557 13.36506969     6    25    0    0    0
H 1469.11888318 -41.88442563 15.38765206     6    25    0    0    0
C 1470.12286083 -42.63868218 11.41593630     2    25   29   30   31
H 1472.00807901 -42.28476944 11.87193206     6    28    0    0    0
H 1469.88455944 -44.68397051 11.41975728     6    28    0    0    0
C 1469.41738494 -41.39152509 8.80479139     2    28   32   33   34
H 1467.85516397 -42.54686899 7.98230327     6    31    0    0    0
H 1468.66891651 -39.56035233 9.17381025     6    31    0    0    0
C 1471.48131062 -41.20638313 6.90073187     2    31   35   36   37
H 1473.10663553 -40.55684753 7.90723786     6    34    0    0    0
H 1471.88172408 -42.94751918 5.99607964     6    34    0    0    0
C 1470.71638670 -39.47118963 4.66856909     2    34   38   39   40
H 1469.07461433 -40.26653617 3.90226793     6    37    0    0    0
H 1470.28934862 -37.59434458 5.20787208     6    37    0    0    0
C 1472.66310056 -39.11623815 2.47930418     2    37   41   42   43
H 1474.25735032 -37.85442669 2.84169911     6    40    0    0    0
H 1473.71501682 -40.90457764 2.04550864     6    40    0    0    0
C 1471.50161349 -38.27626668 -0.11151702     2    40   44   45   46
H 1469.53122761 -38.70451846 -0.42489549     6    43    0    0    0
H 1471.04004297 -36.32140471 0.03128368     6    43    0    0    0
C 1473.07404694 -38.57620295 -2.54571048     1    43   47   48   49
H 1474.89259578 -37.99424696 -2.03928667     6    46    0    0    0
H 1472.43758678 -37.41713578 -4.08074932     6    46    0    0    0
H 1473.39255564 -40.53327073 -2.91453882     6    46    0    0    0
H 1468.71262458 -24.25455166 -2.56421564     6     51    0    0    0
C 1470.16270679 -23.56282593 -1.31914801     1     50    52    53    54
H 1471.64489550 -23.02373049 -2.55331197     6     51    0    0    0
H 1469.51728722 -21.85546767 -0.35688322     6     51    0    0    0
C 1471.14769363 -25.37955477 0.58651779     2     51    55    56    57
H 1471.77758707 -24.15353485 2.08266976     6     54    0    0    0
H 1469.76450768 -26.57804777 1.37374761     6     54    0    0    0
C 1473.48635234 -26.99615845 -0.06469830     2     54    58   59   60
H 1474.89831225 -25.71573746 -0.62582070     6     57    0    0    0
H 1474.06569602 -28.19364611 1.45680797     6     57    0    0    0
C 1472.94854912 -28.83586359 -2.26700421     2     57   61   62   63
H 1471.13236319 -29.60389110 -2.19648110     6    60    0    0    0
H 1473.03854371 -27.70420963 -3.96886720     6    60    0    0    0
C 1475.06738687 -30.81658352 -2.62298903     2    60   64   65   66
H 1476.72640599 -29.56405989 -3.05441480     6    63    0    0    0
H 1475.45404666 -31.86232856 -0.82361250     6    63    0    0    0
C 1474.51201262 -32.47734637 -4.95122195     2    63   67   68   69
H 1476.09212464 -33.86893528 -4.89155356     6    66    0    0    0
H 1472.69138178 -33.46077873 -5.02726502     6    66    0    0    0
C 1474.77756271 -31.23423242 -7.53470735     2    66   70   71   72
H 1473.20619138 -29.87994280 -7.62036589     6    69    0    0    0
H 1476.51552866 -30.12486984 -7.56116950     6    69    0    0    0
C 1474.62418607 -33.11875628 -9.76826399     2    69   73   74   75
H 1476.25302355 -34.12614397 -9.84165477     6    72    0    0    0
H 1472.97843671 -34.46213918 -9.69588831     6    72    0    0    0
C 1474.47589295 -31.69283211 -12.34359041     2    72   76   77   78
H 1473.24017195 -30.09483025 -12.28114641     6    75    0    0    0
H 1476.38582556 -30.92750990 -12.65607261     6    75    0    0    0
C 1473.61327312 -33.45007950 -14.44760307     2    75   79   80   81
H 1474.95459387 -35.09723739 -14.90115382     6    78    0    0    0
H 1471.75697599 -34.14855832 -13.76630373     6    78    0    0    0
C 1473.20994784 -32.13278517 -16.96884366     2    78   82   83   84
H 1471.88249677 -30.65754620 -16.66801134     6    81    0    0    0
H 1474.73962169 -31.03615305 -17.63189375     6    81    0    0    0
C 1472.70049508 -34.07125384 -19.21628434     1    81   85   86   87
H 1472.15264561 -32.89255912 -20.91710144     6    84    0    0    0
H 1471.16416268 -35.31779626 -18.74895872     6    84    0    0    0
H 1474.41257963 -35.00279793 -19.91283924     6    84    0    0    0
H 1493.85678410 -47.64657294 16.30162046     6     89    0    0    0
C 1493.90508771 -48.60736711 14.35500646     1     88    90    91    92
H 1495.57927273 -48.09245175 13.48204951     6     89    0    0    0
H 1493.66025746 -50.61778506 15.02433535     6     89    0    0    0
C 1491.66554841 -47.82212030 12.71194634     2     89    93    94    95
H 1490.21042389 -48.20663863 14.13111446     6     92    0    0    0
H 1491.69787600 -45.83344075 12.31107396     6     92    0    0    0
C 1491.34337575 -49.30732445 10.12067873     2     92    96   97   98
H 1493.03644970 -49.32557224 9.03872286     6     95    0    0    0
H 1491.08177221 -51.27584022 10.38049303     6     95    0    0    0
C 1489.59611620 -48.03455032 8.30073011     2     95   99   100   101
H 1487.89183850 -47.39138516 9.27892295     6    98    0    0    0
H 1490.30351429 -46.25073343 7.72092531     6    98    0    0    0
C 1488.51119563 -49.98659364 6.31886123     2    98   102   103   104
H 1490.09221622 -50.36390889 4.91174645     6    101    0    0    0
H 1488.14271755 -51.69843206 7.32402385     6    101    0    0    0
C 1486.08125018 -49.39417966 4.68731604     2    101   105   106   107
H 1484.65626857 -48.51720009 5.97575289     6    104    0    0    0
H 1486.72258867 -47.91077413 3.45921555     6    104    0    0    0
C 1484.83111155 -51.47919016 3.01459386     2    104   108   109   110
H 1486.29394645 -52.16218393 1.68906191     6    107    0    0    0
H 1484.27350921 -53.07052155 4.28064747     6    107    0    0    0
C 1482.52161121 -50.62920840 1.38141844     2    107   111   112   113
H 1480.95306866 -49.95403408 2.59310484     6    110    0    0    0
H 1482.91826925 -48.92695149 0.32170139     6    110    0    0    0
C 1481.58061645 -52.59139701 -0.29709559     2    110   114   115   116
H 1483.18381397 -53.43492070 -1.18300757     6    113    0    0    0
H 1480.61402628 -54.19028216 0.63302697     6    113    0    0    0
C 1479.67027196 -51.39966644 -2.27533757     2    113   117   118   119
H 1477.79402147 -51.10941151 -1.39959997     6    116    0    0    0
H 1480.30712345 -49.40362450 -2.83928071     6    116    0    0    0
C 1479.36825639 -53.11052189 -4.65107503     2    116   120   121   122
H 1478.25008398 -52.09201215 -6.04750476     6    119    0    0    0
H 1480.90326548 -53.49577459 -5.85655776     6    119    0    0    0
C 1478.16776281 -55.73145190 -4.21714461     1    119   123   124   125
H 1477.88025451 -56.41701051 -6.16672858     6    122    0    0    0
H 1476.27109918 -55.60506576 -3.10308193     6    122    0    0    0
H 1479.34899510 -57.12248259 -3.30394225     6    122    0    0    0
H 1498.15020524 -34.59299913 14.71135330     6     127    0    0    0
C 1498.17671980 -32.59534809 14.99176185     1     126    128    129    130
H 1499.73744188 -31.90244434 16.32195869     6     127    0    0    0
H 1498.63556406 -31.80915344 13.15964465     6     127    0    0    0
C 1495.61263557 -31.55439148 15.66381423     2     127    131    132    133
H 1494.44794026 -32.45530846 14.12710627     6     130    0    0    0
H 1495.04618281 -32.24881897 17.56560680     6     130    0    0    0
C 1495.48720156 -28.69740854 15.50493513     2     130    134   135   136
H 1497.15448128 -27.84170156 16.35738406     6     133    0    0    0
H 1495.71292926 -27.94680074 13.54386437     6     133    0    0    0
C 1493.06226056 -27.65130544 16.44657960     2     133   137   138   139
H 1491.46597346 -28.48944276 15.55900539     6    136    0    0    0
H 1492.57409137 -28.04381238 18.50756120     6    136    0    0    0
C 1493.24170007 -24.79396336 16.34410301     2    136   140   141   142
H 1494.91122818 -23.95509074 17.31731486     6    139    0    0    0
H 1493.08588671 -24.09058552 14.27676282     6    139    0    0    0
C 1491.00224201 -23.60290811 17.60627095     2    139   143   144   145
H 1489.21372534 -24.34260602 16.72617772     6    142    0    0    0
H 1491.20039285 -23.94632457 19.77041302     6    142    0    0    0
C 1491.02149426 -20.75424025 17.26619463     2    142   146   147   148
H 1492.80974534 -19.87768085 17.85524590     6    145    0    0    0
H 1490.83039032 -20.16457311 15.19177957     6    145    0    0    0
C 1488.77278521 -19.31758388 18.72156315     2    145   149   150   151
H 1487.05737135 -19.99207758 17.91195659     6    148    0    0    0
H 1488.74139855 -19.83018604 20.85645767     6    148    0    0    0
C 1488.85555575 -16.33536791 18.54972223     2    148   152   153   154
H 1490.61968607 -15.64797168 19.28624576     6    151    0    0    0
H 1488.71793774 -15.65851051 16.52772108     6    151    0    0    0
C 1486.66228389 -14.94846152 19.91914124     2    151   155   156   157
H 1486.69400704 -12.93433857 19.43846436     6    154    0    0    0
H 1484.97954450 -15.76372530 19.10292878     6    154    0    0    0
C 1486.47180986 -15.28360571 22.79621590     2    154   158   159   160
H 1486.38084760 -17.13378692 23.38897703     6    157    0    0    0
H 1488.27224559 -14.66910405 23.74228049     6    157    0    0    0
C 1484.19785009 -14.12971914 24.13777628     1    157   161   162   163
H 1483.79531708 -15.19606158 25.83820757     6    160    0    0    0
H 1482.54193666 -14.13445856 23.05347739     6    160    0    0    0
H 1484.62174964 -12.17074161 24.62178170     6    160    0    0    0
H 1511.83435675 -40.71506246 -1.05058391     6     165    0    0    0
C 1511.09861327 -40.98553796 0.81730087     1     164    166    167    168
H 1509.89003201 -42.63524883 0.88658690     6     165    0    0    0
H 1512.69811467 -41.26437370 1.98928150     6     165    0    0    0
C 1509.65869401 -38.56193352 1.45607335     2     165    169    170    171
H 1511.02510875 -36.99605214 1.07493204     6     168    0    0    0
H 1508.31879560 -38.07088612 0.03388951     6     168    0    0    0
C 1508.68054934 -38.47874094 4.21512683     2     168    172   173   174
H 1507.55552762 -40.07841856 4.65849243     6     171    0    0    0
H 1510.42264188 -38.87206901 5.21056051     6     171    0    0    0
C 1507.51896866 -35.92633390 5.04932232     2     171   175   176   177
H 1508.33719943 -34.17028587 4.35268464     6    174    0    0    0
H 1505.67630017 -35.60676436 4.35397855     6    174    0    0    0
C 1507.57257757 -35.78560814 7.98305048     2    174   178   179   180
H 1505.99792060 -36.83390711 8.71201544     6    177    0    0    0
H 1509.42776624 -36.62313982 8.59114296     6    177    0    0    0
C 1507.23869071 -33.00291586 9.15464730     2    177   181   182   183
H 1505.63607924 -32.17744228 8.31400788     6    180    0    0    0
H 1507.01400620 -33.14839013 11.26372816     6    180    0    0    0
C 1509.57938378 -31.28240533 8.42504563     2    180   184   185   186
H 1511.29960772 -32.32854799 8.68280481     6    183    0    0    0
H 1509.53369069 -30.80487138 6.49101737     6    183    0    0    0
C 1509.62013801 -28.93839101 10.21596595     2    183   187   188   189
H 1507.81055152 -27.98112641 10.26460914     6    186    0    0    0
H 1509.79890472 -29.84320615 12.09077105     6    186    0    0    0
C 1511.74138476 -26.82159759 9.68036903     2    186   190   191   192
H 1513.69093530 -27.36551971 9.89498487     6    189    0    0    0
H 1511.74822856 -26.34794918 7.72330708     6    189    0    0    0
C 1511.34388311 -24.25709884 10.85006583     2    189   193   194   195
H 1509.63752341 -23.42264117 10.26044758     6    192    0    0    0
H 1511.13788319 -24.46695411 12.84169790     6    192    0    0    0
C 1513.46459181 -22.33796513 10.41090551     2    192   196   197   198
H 1515.28058522 -23.20669328 10.73521753     6    195    0    0    0
H 1513.53786116 -21.97515990 8.39912902     6    195    0    0    0
C 1513.22135148 -20.17642791 12.26255490     1    195   199   200   201
H 1514.95959676 -19.15846253 12.16872311     6    198    0    0    0
H 1512.76008212 -20.77822333 14.18880681     6    198    0    0    0
H 1511.81002057 -18.71890117 11.50517358     6    198    0    0    0
H 1498.17280876 -35.62341115 -8.45118876     6     203    0    0    0
C 1497.47266118 -35.44550122 -10.28121019     1     202    204    205    206
H 1498.29667335 -36.87232515 -11.41702284     6     203    0    0    0
H 1495.47066396 -36.01617788 -10.36148416     6     203    0    0    0
C 1497.87979439 -32.85779392 -11.65212956     2     203    207    208    209
H 1497.74600390 -33.12901798 -13.73268077     6     206    0    0    0
H 1496.50704663 -31.58334871 -10.98983641     6     206    0    0    0
C 1500.41703296 -31.63947960 -11.00327943     2     206    210   211   212
H 1500.68236157 -31.71589635 -8.92904467     6     209    0    0    0
H 1502.07014554 -32.43221204 -11.96426636     6     209    0    0    0
C 1500.49043149 -28.72607189 -11.60936004     2     209   213   214   215
H 1498.93609988 -27.82055826 -10.77356926     6    212    0    0    0
H 1502.07642763 -27.87892276 -10.65386908     6    212    0    0    0
C 1500.83624245 -28.35793060 -14.37904573     2    212   216   217   218
H 1502.72894431 -29.25984088 -14.70209511     6    215    0    0    0
H 1499.33398923 -29.18683847 -15.41332277     6    215    0    0    0
C 1500.95450940 -25.67158504 -15.10373051     2    215   219   220   221
H 1499.10121423 -24.56923613 -14.92586501     6    218    0    0    0
H 1502.41345690 -24.85749953 -14.03866164     6    218    0    0    0
C 1501.66189334 -25.29917832 -17.88404731     2    218   222   223   224
H 1503.57318509 -25.82915618 -18.11268346     6    221    0    0    0
H 1500.42497417 -26.62368140 -18.98850466     6    221    0    0    0
C 1501.27817986 -22.49407480 -18.86232289     2    221   225   226   227
H 1499.32223621 -21.99498849 -19.07006446     6    224    0    0    0
H 1501.65582376 -21.14870044 -17.33091384     6    224    0    0    0
C 1502.77474521 -21.82316445 -21.17940600     2    224   228   229   230
H 1504.85370216 -21.90538404 -20.86484246     6    227    0    0    0
H 1502.19315578 -23.21126706 -22.55285741     6    227    0    0    0
C 1502.05679552 -18.99772209 -21.88169121     2    227   231   232   233
H 1500.07899150 -18.47109335 -21.60307704     6    230    0    0    0
H 1503.14753811 -17.69006724 -20.77639978     6    230    0    0    0
C 1502.59933515 -18.48845460 -24.65610145     2    230   234   235   236
H 1504.53631660 -19.09938738 -25.19277071     6    233    0    0    0
H 1501.49784337 -19.91633495 -25.68722067     6    233    0    0    0
C 1502.18309655 -15.79390533 -25.47228407     1    233   237   238   239
H 1502.94123801 -15.50666407 -27.39573508     6    236    0    0    0
H 1503.10293668 -14.55581917 -23.99807019     6    236    0    0    0
H 1500.14874610 -15.31716372 -25.38889757     6    236    0    0    0
H 1475.18639991 -41.51045323 -14.00177379     6     241    0    0    0
C 1475.43536477 -41.73780988 -12.02706612     1     240    242    243    244
H 1476.87756624 -43.23297810 -11.85990671     6     241    0    0    0
H 1476.20287045 -40.07957994 -11.37521032     6     241    0    0    0
C 1473.07283889 -42.92194541 -10.61491881     2     241    245    246    247
H 1472.49271080 -44.68170965 -11.36645644     6     244    0    0    0
H 1473.70692703 -43.45434006 -8.71697342     6     244    0    0    0
C 1470.75217270 -41.15909956 -10.25389219     2     244    248   249   250
H 1469.30916614 -41.84399436 -9.00619839     6     247    0    0    0
H 1471.33450854 -39.47063043 -9.35921358     6     247    0    0    0
C 1469.52584200 -40.43051917 -12.78442584     2     247   251   252   253
H 1468.12605802 -38.95100638 -12.54354491     6    250    0    0    0
H 1471.01730737 -40.09551327 -14.13171329     6    250    0    0    0
C 1467.95492469 -42.70024035 -13.79283357     2    250   254   255   256
H 1469.16526662 -44.29265331 -14.25524859     6    253    0    0    0
H 1466.76572442 -43.51817086 -12.22117348     6    253    0    0    0
C 1466.08185042 -41.94761518 -15.98747715     2    253   257   258   259
H 1464.80845341 -43.44722014 -16.32996636     6    256    0    0    0
H 1465.03979376 -40.20973626 -15.33580680     6    256    0    0    0
C 1467.37959538 -41.38484143 -18.54254050     2    256   260   261   262
H 1468.69461521 -39.71395422 -18.12052573     6    259    0    0    0
H 1468.40740809 -43.07784709 -19.18643783     6    259    0    0    0
C 1465.47656087 -40.50807251 -20.60711406     2    259   263   264   265
H 1464.61323719 -42.16649649 -21.38015229     6    262    0    0    0
H 1463.95918626 -39.19861053 -20.11373527     6    262    0    0    0
C 1466.91463544 -39.12840715 -22.74105189     2    262   266   267   268
H 1467.99525277 -37.54388486 -21.89895573     6    265    0    0    0
H 1468.31630946 -40.46902064 -23.32956204     6    265    0    0    0
C 1465.15777174 -38.13815215 -24.86152435     2    265   269   270   271
H 1464.18573917 -39.85810004 -25.51278812     6    268    0    0    0
H 1463.90531526 -36.77537985 -23.94943499     6    268    0    0    0
C 1466.54289616 -36.85196668 -26.97474036     2    268   272   273   274
H 1467.66682450 -35.25635779 -26.09592380     6    271    0    0    0
H 1467.76952191 -38.32950710 -27.79548115     6    271    0    0    0
C 1464.95721142 -36.01441434 -29.14501459     1    271   275   276   277
H 1463.93131943 -37.76822957 -29.85967710     6    274    0    0    0
H 1465.93066258 -35.38119783 -30.74590832     6    274    0    0    0
H 1463.61933076 -34.73023848 -28.36827736     6    274    0    0    0
H 1491.51683961 -41.19103632 -8.34249630     6     279    0    0    0
C 1491.29139215 -41.82557895 -10.28078019     1     278    280    281    282
H 1493.10453366 -41.88513734 -11.34053638     6     279    0    0    0
H 1490.43195171 -43.67287997 -10.10861696     6     279    0    0    0
C 1489.81585938 -39.93714655 -11.73317465     2     279    283    284    285
H 1487.68071007 -39.92924546 -11.44100207     6     282    0    0    0
H 1490.51266613 -37.97584391 -11.30426341     6     282    0    0    0
C 1490.04167066 -40.16219974 -14.72276273     2     282    286   287   288
H 1491.66367010 -40.56738416 -15.61801368     6     285    0    0    0
H 1488.95300530 -41.87516894 -15.20090181     6     285    0    0    0
C 1489.22222240 -37.62200601 -15.87952774     2     285   289   290   291
H 1487.41192314 -37.08295340 -14.99497578     6    288    0    0    0
H 1490.67332194 -36.17648059 -15.58885359     6    288    0    0    0
C 1488.59073237 -38.00322746 -18.73231357     2    288   292   293   294
H 1490.01168807 -39.07424598 -19.72449052     6    291    0    0    0
H 1486.72246384 -39.10969227 -18.68688751     6    291    0    0    0
C 1488.34799012 -35.38177760 -20.06078008     2    291   295   296   297
H 1487.45467742 -34.05081675 -18.66502082     6    294    0    0    0
H 1490.19351740 -34.61539890 -20.60914519     6    294    0    0    0
C 1487.22304611 -35.68204181 -22.87444380     2    294   298   299   300

   18   -1830.5101947280      4.09E-09 Convergence criterion met
 Total energy in the final basis set = -1828.27015657
 Total job time:  17.52s(wall), 31.61s(cpu)
        *  Thank you very much for using Q-Chem.  Have a nice day.  *

User input: 2 of 2

                  Welcome to Q-Chem
     A Quantum Leap Into The Future Of Chemistry

 Q-Chem 5.4 (devel), Q-Chem, Inc., Pleasanton, CA (2021)

 E. Epifanovsky,  A. T. B. Gilbert,  Xintian Feng,  Joonho Lee,  Yuezhi Mao,
 N. Mardirossian,  P. Pokhilko,  A. White,  M. Wormit,  M. P. Coons,
 A. L. Dempwolff,  Zhengting Gan,  D. Hait,  P. R. Horn,  L. D. Jacobson,
 I. Kaliman,  J. Kussmann,  A. W. Lange,  Ka Un Lao,  D. S. Levine,  Jie Liu,
 S. C. McKenzie,  A. F. Morrison,  K. Nanda,  F. Plasser,  D. R. Rehn,
 M. L. Vidal,  Zhi-Qiang You,  Ying Zhu,  B. Alam,  B. Albrecht,
 A. Aldossary,  E. Alguire,  J. H. Andersen,  D. Barton,  K. Begam,  A. Behn,
 Y. A. Bernard,  E. J. Berquist,  H. Burton,  A. Carreras,  K. Carter-Fenk,
 R. Chakraborty,  A. D. Chien,  K. D. Closser,  V. Cofer-Shabica,
 S. Dasgupta,  Jia Deng,  M. de Wergifosse,  M. Diedenhofen,  Hainam Do,
 S. Ehlert,  Po-Tung Fang,  S. Fatehi,  Qingguo Feng,  T. Friedhoff,
 J. Gayvert,  Qinghui Ge,  G. Gidofalvi,  M. Goldey,  J. Gomes,
 C. Gonzalez-Espinoza,  S. Gulania,  A. Gunina,  M. W. D. Hanson-Heine,
 P. H. P. Harbach,  A. W. Hauser,  M. F. Herbst,  M. Hernandez Vera,
 M. Hodecker,  Z. C. Holden,  S. Houck,  Xunkun Huang,  Kerwin Hui,
 B. C. Huynh,  M. Ivanov,  Hyunjun Ji,  Hanjie Jiang,  B. Kaduk,  S. Kaehler,
 K. Khistyaev,  Jaehoon Kim,  P. Klunzinger,  Z. Koczor-Benda,
 Joong Hoon Koh,  D. Kosenkov,  L. Koulias,  T. Kowalczyk,  C. M. Krauter,
 K. Kue,  A. Kunitsa,  T. Kus,  A. Landau,  K. V. Lawler,  D. Lefrancois,
 S. Lehtola,  Rain Li,  Yi-Pei Li,  Jiashu Liang,  M. Liebenthal,
 Hung-Hsuan Lin,  You-Sheng Lin,  Fenglai Liu,  Kuan-Yu Liu,
 M. Loipersberger,  A. Luenser,  A. Manjanath,  P. Manohar,  E. Mansoor,
 S. F. Manzer,  Shan-Ping Mao,  A. V. Marenich,  T. Markovich,  S. Mason,
 S. A. Maurer,  P. F. McLaughlin,  M. F. S. J. Menger,  J.-M. Mewes,
 S. A. Mewes,  P. Morgante,  J. W. Mullinax,  K. J. Oosterbaan,  G. Paran,
 Alexander C. Paul,  Suranjan K. Paul,  F. Pavosevic,  Zheng Pei,  S. Prager,
 E. I. Proynov,  E. Ramos,  B. Rana,  A. E. Rask,  A. Rettig,  R. M. Richard,
 F. Rob,  E. Rossomme,  T. Scheele,  M. Scheurer,  M. Schneider,
 N. Sergueev,  S. M. Sharada,  W. Skomorowski,  D. W. Small,  C. J. Stein,
 Yu-Chuan Su,  E. J. Sundstrom,  Zhen Tao,  J. Thirman,  T. Tsuchimochi,
 N. M. Tubman,  S. P. Veccham,  O. Vydrov,  J. Wenzel,  J. Witte,  A. Yamada,
 Kun Yao,  S. Yeganeh,  S. R. Yost,  A. Zech,  Igor Ying Zhang,  Xing Zhang,
 Yu Zhang,  D. Zuev,  A. Aspuru-Guzik,  A. T. Bell,  N. A. Besley,
 K. B. Bravaya,  B. R. Brooks,  D. Casanova,  Jeng-Da Chai,  S. Coriani,
 C. J. Cramer,  A. E. DePrince, III,  R. A. DiStasio Jr.,  A. Dreuw,
 B. D. Dunietz,  T. R. Furlani,  W. A. Goddard III,  S. Grimme,
 S. Hammes-Schiffer,  T. Head-Gordon,  W. J. Hehre,  Chao-Ping Hsu,
 T.-C. Jagau,  Yousung Jung,  A. Klamt,  Jing Kong,  D. S. Lambrecht,
 WanZhen Liang,  N. J. Mayhall,  C. W. McCurdy,  J. B. Neaton,
 C. Ochsenfeld,  J. A. Parkhill,  R. Peverati,  V. A. Rassolov,  Yihan Shao,
 L. V. Slipchenko,  T. Stauch,  R. P. Steele,  J. E. Subotnik,
 A. J. W. Thom,  A. Tkatchenko,  D. G. Truhlar,  T. Van Voorhis,
 T. A. Wesolowski,  K. B. Whaley,  H. L. Woodcock III,  P. M. Zimmerman,
 S. Faraji,  P. M. W. Gill,  M. Head-Gordon,  J. M. Herbert,  A. I. Krylov

 Additional authors for Version 5.4.1:
 S. Kotaru,  Shaozhi Li,  Xiangyuan Li,  F. Matz,  A. Molle,  Haisheng Ren,
 Yingli Su,  Hung-Yi Tsai,  C. Utku,  Fang Wang

 Contributors to earlier versions of Q-Chem not listed above:
 R. D. Adamson,  B. Austin,  R. Baer,  J. Baker,  G. J. O. Beran,
 K. Brandhorst,  S. T. Brown,  E. F. C. Byrd,  A. K. Chakraborty,
 G. K. L. Chan,  Chun-Min Chang,  Yunqing Chen,  C.-L. Cheng,
 Siu Hung Chien,  D. M. Chipman,  D. L. Crittenden,  H. Dachsel,
 R. J. Doerksen,  A. D. Dutoi,  R. G. Edgar,  J. Fosso-Tande,
 L. Fusti-Molnar,  D. Ghosh,  A. Ghysels,  A. Golubeva-Zadorozhnaya,
 J. Gonthier,  M. S. Gordon,  S. R. Gwaltney,  G. Hawkins,  J. E. Herr,
 A. Heyden,  S. Hirata,  E. G. Hohenstein,  G. Kedziora,  F. J. Keil,
 C. Kelley,  Jihan Kim,  R. A. King,  R. Z. Khaliullin,  P. P. Korambath,
 W. Kurlancheek,  A. Laurent,  A. M. Lee,  M. S. Lee,  S. V. Levchenko,
 Ching Yeh Lin,  D. Liotard,  E. Livshits,  R. C. Lochan,  I. Lotan,
 L. A. Martinez-Martinez,  P. E. Maslen,  N. Nair,  D. P. O'Neill,
 D. Neuhauser,  E. Neuscamman,  C. M. Oana,  R. Olivares-Amaya,  R. Olson,
 T. M. Perrine,  B. Peters,  P. A. Pieniazek,  A. Prociuk,  Y. M. Rhee,
 J. Ritchie,  M. A. Rohrdanz,  E. Rosta,  N. J. Russ,  H. F. Schaefer III,
 M. W. Schmidt,  N. E. Schultz,  S. Sharma,  N. Shenvi,  C. D. Sherrill,
 A. C. Simmonett,  A. Sodt,  T. Stein,  D. Stuck,  K. S. Thanthiriwatte,
 V. Vanovschi,  L. Vogt,  Tao Wang,  A. Warshel,  M. A. Watson,
 C. F. Williams,  Q. Wu,  X. Xu,  Jun Yang,  W. Zhang,  Yan Zhao

 Please cite Q-Chem as follows:
 Y. Shao et al., Mol. Phys. 113, 184-215 (2015)
 DOI: 10.1080/00268976.2014.952696

 Q-Chem 5.4.1 for Intel X86 EM64T Linux

 Parts of Q-Chem use Armadillo 9.900.5 (Nocturnal Misbehaviour).
 http://arma.sourceforge.net/

 Q-Chem begins on Wed Jun  1 23:30:40 2022

 Host: p09r14n13.grace.hpc.yale.internal
0

     Scratch files written to /home/tl686/scratch60/qchem_dev/scratch/qchem244287//
 Processing $rem in /home/tl686/qchem_dev/qchem/config/preferences:
 Processing $rem in /home/tl686/.qchemrc:
Applying user defined connections for MM calculations
The previous job contains 0 fragments, simply inherited here

 Checking the input file for inconsistencies... 	...done.

--------------------------------------------------------------
User input:
--------------------------------------------------------------

$molecule
READ
$end

$qm_atoms
1:11
$end

$force_field_params
NumAtomTypes 3
AtomType -1   0.0238     3.11   0.2868
AtomType -2   0.07124    3.30   0.6597
AtomType -3  -0.0760     3.09   0.1434
$end

$rem
     JOBTYPE  freq
     METHOD   bp86
     BASIS    def2-msvp
     MAX_SCF_CYCLES   800
     INPUT_BOHR TRUE
     SYM_IGNORE TRUE
     SCF_GUESS     read
     user_connect            true
     qm_mm_interface         ONIOM
     force_field             oplsaa
$end

--------------------------------------------------------------

    3   -1830.5101947280      8.98E-09 Convergence criterion met
 Total energy in the final basis set = -1828.27015657

                    Orbital Energies (a.u.)
 --------------------------------------------------------------

 Alpha MOs
 -- Occupied --
******** -29.6351 -25.5958 -25.5817 -25.5786 -18.8949 -18.8931 -18.8770
-18.8759 -18.8698 -10.0652 -10.0553 -10.0513 -10.0457 -10.0398  -3.3185
 -2.1558  -2.1281  -2.1207  -1.0730  -1.0574  -1.0339  -1.0329  -1.0322
 -0.5734  -0.5302  -0.5242  -0.5162  -0.5109  -0.4565  -0.4449  -0.4363
 -0.4340  -0.4323  -0.4288  -0.4197  -0.4160  -0.4086  -0.4037  -0.4027
 -0.3984  -0.3956  -0.3881  -0.3758  -0.2754  -0.2685  -0.2289  -0.2230

          Ground-State Mulliken Net Atomic Charges

     Atom                 Charge (a.u.)
  ----------------------------------------
      1 Fe                   -0.440845
      2 C                     0.232895
      3 C                     0.208062
      4 C                     0.209233
      5 C                     0.185324
      6 C                     0.210765
      7 O                    -0.134975
      8 O                    -0.135763
      9 O                    -0.082079
     10 O                    -0.144365
     11 O                    -0.108253
  ----------------------------------------
  Sum of atomic charges =     0.000000

                    Cartesian Multipole Moments
 -----------------------------------------------------------------
    Charge (ESU x 10^10)
                 0.0000
    Dipole Moment (Debye)
         X       0.3702907124      Y       0.0742009272      Z       1.1671742058
       Tot       1.2267504294
    Quadrupole Moments (Debye-Ang)
        XX     508.6664     XY      55.0429     YY     -71.0228
        XZ     914.3656     YZ     -10.2399     ZZ     -65.9308
