 Q-Chem 5.4 (devel), Q-Chem, Inc., Pleasanton, CA (2021)
 Q-Chem 5.4.1 for Intel X86 EM64T Linux

User input:
--------------------------------------------------------------
$molecule
0   1
 Fe 1477.70705582 -16.34253203 4.43471471    -1  0   0   0   0
C 1474.30805983 -16.61090313 4.82245004    -2  0   0   0   0
C 1478.72004212 -15.01069497 1.74649514    -2  0   0   0   0
C 1479.74061649 -17.60526900 6.76546256    -2  0   0   0   0
C 1478.04626358 -19.30112191 2.58203794    -2  0   0   0   0
C 1477.60204320 -13.36483546 5.66998576    -2  0   0   0   0
O 1472.27063749 -16.41215288 5.26085022    -3  0   0   0   0
O 1479.52819663 -13.87248166 -0.65671428    -3  0   0   0   0
O 1480.99232864 -18.18342470 8.48156139    -3  0   0   0   0
O 1478.65218008 -20.97163389 1.38508181    -3  0   0   0   0
O 1477.65929187 -11.48350915 6.80227688    -3  0   0   0   0
H 1462.52378061 -44.95947212 19.94144604      6     13    0    0    0
C 1462.23652074 -43.07653260 19.63901664     1     12    14    15    16
H 1460.52737768 -42.61417866 20.49574246     6     13    0    0    0
H 1463.57410088 -42.15120271 20.85674078     6     13    0    0    0
C 1462.34580939 -42.38546638 16.96732674     2     13    17    18    19
H 1460.99079991 -43.52192571 15.78419195     6     16    0    0    0
H 1462.10991865 -40.41904283 16.77861594     6     16    0    0    0
C 1465.11418788 -42.95299907 16.00448387     2     16    20   21   22
H 1466.61737353 -41.60849282 16.80472193     6     19    0    0    0
H 1465.58245839 -44.83080365 16.75424595     6     19    0    0    0
C 1465.32707394 -43.05667193 13.11156136     2     19   23   24   25
H 1463.74167667 -44.04643215 12.44127405     6    22    0    0    0
H 1465.27405065 -41.07686715 12.27760694     6    22    0    0    0
C 1467.96303719 -44.34929973 12.55126936     2    22   26   27   28
H 1469.65535808 -43.50253880 13.42647865     6    25    0    0    0
H 1467.84196837 -46.29804456 13.16827290     6    25    0    0    0
C 1468.43116075 -44.97033662 9.67741707     2    25   29   30   31
H 1469.89630825 -46.45575211 9.56578494     6    28    0    0    0
H 1466.70750409 -45.71304293 8.78487271     6    28    0    0    0
C 1469.26064822 -42.69582124 8.23552104     2    28   32   33   34
H 1467.86791985 -41.26395848 8.59513073     6    31    0    0    0
H 1471.10769445 -42.10464752 9.03284871     6    31    0    0    0
C 1469.59921914 -43.24206583 5.42102151     2    31   35   36   37
H 1471.05871770 -44.72684997 4.96163693     6    34    0    0    0
H 1467.84756993 -44.15658465 4.60574413     6    34    0    0    0
C 1470.47867366 -40.85666448 3.90754471     2    34   38   39   40
H 1469.28007392 -39.09851575 4.17339090     6    37    0    0    0
H 1472.32901323 -40.40723286 4.83993375     6    37    0    0    0
C 1470.93813305 -41.22254140 1.13440826     2    37   41   42   43
H 1472.01411708 -42.92016761 0.68368503     6    40    0    0    0
H 1469.24808950 -41.41636168 0.22410645     6    40    0    0    0
C 1472.60031504 -39.13070125 0.23078502     2    40   44   45   46
H 1471.89243096 -37.28047406 0.60628213     6    43    0    0    0
H 1474.38838652 -39.30630415 1.24810475     6    43    0    0    0
C 1473.02902417 -39.42196000 -2.70013135     1    43   47   48   49
H 1474.00734717 -41.13894922 -3.27891743     6    46    0    0    0
H 1474.26262181 -37.95650349 -3.43049305     6    46    0    0    0
H 1471.45468170 -39.17231528 -4.02331254     6    46    0    0    0
H 1470.90316588 -24.83085705 -2.47727774     6     51    0    0    0
C 1472.26264113 -23.68012458 -1.49951523     1     50    52    53    54
H 1473.79935952 -22.90685936 -2.64180707     6     51    0    0    0
H 1471.34887255 -21.92646077 -0.96776019     6     51    0    0    0
C 1473.39844585 -25.17669627 0.71390510     2     51    55    56    57
H 1474.64451480 -24.12617607 1.99108509     6     54    0    0    0
H 1471.95450437 -25.72246967 1.98288685     6     54    0    0    0
C 1474.58664348 -27.66748028 -0.20334039     2     54    58   59   60
H 1476.55847881 -27.60343847 -0.55319822     6     57    0    0    0
H 1474.27882708 -28.86953363 1.32633649     6     57    0    0    0
C 1473.39166116 -28.93562595 -2.53192739     2     57   61   62   63
H 1471.46867766 -29.14488623 -2.00538790     6    60    0    0    0
H 1473.58669645 -27.52529478 -4.06841627     6    60    0    0    0
C 1474.80257571 -31.36291203 -3.38798928     2    60   64   65   66
H 1476.88727558 -31.07289322 -3.48866319     6    63    0    0    0
H 1474.58415419 -32.81270006 -1.78689957     6    63    0    0    0
C 1473.95055656 -32.72973086 -5.72958801     2    63   67   68   69
H 1474.77237794 -34.59916083 -5.60015744     6    66    0    0    0
H 1471.96582357 -33.21253978 -5.64758867     6    66    0    0    0
C 1474.74696932 -31.36873388 -8.10228195     2    66   70   71   72
H 1474.04230052 -29.44014876 -8.13005231     6    69    0    0    0
H 1476.80301937 -31.18387958 -8.17279949     6    69    0    0    0
C 1473.93323480 -32.96760875 -10.48064874     2    69   73   74   75
H 1475.08813734 -34.69604164 -10.25841794     6    72    0    0    0
H 1471.94334826 -33.55318858 -10.28308290     6    72    0    0    0
C 1474.34533220 -31.74563133 -13.04252601     2    72   76   77   78
H 1473.32316558 -30.02507234 -13.11551447     6    75    0    0    0
H 1476.36951146 -31.45228295 -13.26786661     6    75    0    0    0
C 1473.27021043 -33.58136825 -15.09218536     2    75   79   80   81
H 1474.36632541 -35.21517210 -15.39348386     6    78    0    0    0
H 1471.42273631 -34.28476306 -14.56212016     6    78    0    0    0
C 1473.12714047 -32.31623819 -17.55900717     2    78   82   83   84
H 1471.84207346 -30.85992127 -17.64419966     6    81    0    0    0
H 1474.91070718 -31.60653166 -18.15763928     6    81    0    0    0
C 1472.11076235 -34.08636599 -19.64678018     1    81   85   86   87
H 1471.33184143 -33.04649790 -21.15260890     6    84    0    0    0
H 1470.48823571 -35.35951425 -18.93248657     6    84    0    0    0
H 1473.38510527 -35.37336441 -20.57264129     6    84    0    0    0
H 1494.85771814 -48.21793572 13.77876027     6     89    0    0    0
C 1494.12121629 -49.90106585 12.85940469     1     88    90    91    92
H 1495.42192687 -50.63986803 11.24377246     6     89    0    0    0
H 1494.03428627 -51.50830602 14.12380211     6     89    0    0    0
C 1491.51888784 -49.31261214 11.63707500     2     89    93    94    95
H 1490.26741296 -48.00483203 12.68304105     6     92    0    0    0
H 1491.71271179 -48.27340359 9.80467632     6     92    0    0    0
C 1490.02769766 -51.63004733 10.84114739     2     92    96   97   98
H 1491.23827454 -52.94901823 9.64438112     6     95    0    0    0
H 1489.50493682 -52.51543290 12.72108600     6     95    0    0    0
C 1487.60969907 -50.82369035 9.31615894     2     95   99   100   101
H 1486.58772122 -49.69184911 10.61183595     6    98    0    0    0
H 1488.44886588 -49.88957355 7.65860315     6    98    0    0    0
C 1485.93536100 -52.93230977 8.38211591     2    98   102   103   104
H 1487.06855208 -54.55962700 8.10916131     6    101    0    0    0
H 1484.44204232 -53.46288081 9.75862768     6    101    0    0    0
C 1484.68760366 -52.37079320 5.98147236     2    101   105   106   107
H 1483.30746455 -50.93290448 6.40607769     6    104    0    0    0
H 1485.91680834 -51.34545015 4.65290317     6    104    0    0    0
C 1483.10947618 -54.22928010 4.33455817     2    104   108   109   110
H 1484.31521735 -55.84464814 3.96635850     6    107    0    0    0
H 1481.58413001 -54.96085020 5.42946996     6    107    0    0    0
C 1481.88545192 -53.05615861 1.89192255     2    107   111   112   113
H 1480.61298472 -51.58926902 2.29021383     6    110    0    0    0
H 1483.47450571 -52.11267596 1.02390245     6    110    0    0    0
C 1480.46236584 -55.03277925 0.25146367     2    110   114   115   116
H 1481.69054872 -56.55511121 -0.50164264     6    113    0    0    0
H 1479.17824964 -56.05658450 1.42438203     6    113    0    0    0
C 1478.97724768 -53.72245622 -1.89410894     2    113   117   118   119
H 1477.15575041 -52.98315727 -1.26038960     6    116    0    0    0
H 1480.09088542 -52.09324955 -2.42834132     6    116    0    0    0
C 1478.45131069 -55.48542996 -4.12291803     2    116   120   121   122
H 1477.47555462 -54.41432800 -5.57536195     6    119    0    0    0
H 1480.32043635 -56.21215643 -4.81091357     6    119    0    0    0
C 1476.91240685 -57.81117067 -3.43130402     1    119   123   124   125
H 1476.34879349 -59.14000533 -4.94584738     6    122    0    0    0
H 1475.28075563 -57.46301105 -2.32376953     6    122    0    0    0
H 1478.09699210 -59.16155687 -2.28850224     6    122    0    0    0
H 1498.94621947 -34.43976029 14.34568739     6     127    0    0    0
C 1498.84779868 -32.27013070 14.41118291     1     126    128    129    130
H 1500.47655138 -31.78924056 15.50490775     6     127    0    0    0
H 1499.17025967 -31.42705338 12.47013662     6     127    0    0    0
C 1496.41815740 -31.43149705 15.80316224     2     127    131    132    133
H 1494.80064792 -32.49277642 15.17315272     6     130    0    0    0
H 1496.55851271 -32.14517555 17.70912608     6     130    0    0    0
C 1496.17426823 -28.53319705 15.70998093     2     130    134   135   136
H 1497.76370903 -27.72126416 16.69581151     6     133    0    0    0
H 1496.16935174 -27.88085004 13.83755259     6     133    0    0    0
C 1493.74495487 -27.19055656 16.86488190     2     133   137   138   139
H 1492.16756251 -27.94426996 15.63892389     6    136    0    0    0
H 1493.39242367 -27.37517919 18.79532378     6    136    0    0    0
C 1493.87121552 -24.35453627 16.18035393     2    136   140   141   142
H 1495.62290968 -23.65149097 17.03383913     6    139    0    0    0
H 1494.14089429 -24.30347664 14.17742987     6    139    0    0    0
C 1491.66141080 -22.77464039 16.98066191     2    139   143   144   145
H 1489.81731646 -23.45426758 16.10614425     6    142    0    0    0
H 1491.22804575 -23.39366177 18.92213690     6    142    0    0    0
C 1492.35878587 -20.02170271 16.69575977     2    142   146   147   148
H 1494.11725447 -19.68798133 17.69907108     6    145    0    0    0
H 1492.43486264 -19.42412717 14.80205089     6    145    0    0    0
C 1490.67360210 -18.42442087 18.28990147     2    145   149   150   151
H 1488.63002697 -18.73406611 17.82224677     6    148    0    0    0
H 1491.04762843 -18.67886224 20.21269962     6    148    0    0    0
C 1491.12706374 -15.77700787 17.59968353     2    148   152   153   154
H 1493.18097373 -15.08530503 17.57854586     6    151    0    0    0
H 1490.72860990 -15.49726518 15.64633086     6    151    0    0    0
C 1489.37712689 -13.95801776 19.08572590     2    151   155   156   157
H 1489.50187387 -12.17601654 18.06696363     6    154    0    0    0
H 1487.30736167 -14.25123922 18.91487604     6    154    0    0    0
C 1489.84395903 -13.40427751 21.86423596     2    154   158   159   160
H 1489.83513922 -15.23223100 22.93986751     6    157    0    0    0
H 1491.50893791 -12.37978023 21.99636938     6    157    0    0    0
C 1487.70117432 -11.83416469 22.92765283     1    157   161   162   163
H 1487.72139834 -11.22962462 24.95168867     6    160    0    0    0
H 1485.74929658 -12.66502605 22.64391074     6    160    0    0    0
H 1487.46345322 -10.03055265 21.84448713     6    160    0    0    0
H 1508.68178060 -41.54921709 -0.69848848     6     165    0    0    0
C 1508.68555979 -41.07635909 1.37801153     1     164    166    167    168
H 1507.28653734 -42.26399995 2.19999900     6     165    0    0    0
H 1510.60140476 -41.54100658 2.14347845     6     165    0    0    0
C 1508.49802305 -38.17018218 2.06329784     2     165    169    170    171
H 1509.84018556 -37.00693365 0.97104281     6     168    0    0    0
H 1506.62604419 -37.45748671 1.80670366     6     168    0    0    0
C 1509.08771465 -37.80220666 4.93455422     2     168    172   173   174
H 1507.82675602 -38.89300069 6.13722804     6     171    0    0    0
H 1511.01372923 -38.38075791 5.37851096     6     171    0    0    0
C 1508.62394008 -35.02917105 5.77068343     2     171   175   176   177
H 1510.13596498 -33.90831601 4.84926712     6    174    0    0    0
H 1506.70033326 -34.41478811 5.07254900     6    174    0    0    0
C 1508.84510590 -34.79769428 8.64778191     2    174   178   179   180
H 1507.64949079 -36.28226310 9.64302534     6    177    0    0    0
H 1510.84588786 -35.61185373 8.96157268     6    177    0    0    0
C 1508.37538625 -32.22881367 9.61693000     2    177   181   182   183
H 1506.34969227 -31.81627766 9.22041936     6    180    0    0    0
H 1508.25526518 -32.28693890 11.61463727     6    180    0    0    0
C 1510.18998433 -30.05702340 8.95587232     2    180   184   185   186
H 1512.02833812 -30.68329661 9.61959757     6    183    0    0    0
H 1510.18656071 -29.91653745 6.92775208     6    183    0    0    0
C 1509.36033976 -27.57744167 9.87345597     2    183   187   188   189
H 1508.11980073 -26.72662993 8.44192196     6    186    0    0    0
H 1507.91113262 -27.71800171 11.28410912     6    186    0    0    0
C 1511.58813856 -25.83302528 10.79926744     2    186   190   191   192
H 1512.46942906 -26.59690716 12.51282467     6    189    0    0    0
H 1512.99139931 -25.77579704 9.24924245     6    189    0    0    0
C 1510.74553078 -23.02977933 11.41403722     2    189   193   194   195
H 1510.18612578 -21.89807558 9.70977253     6    192    0    0    0
H 1509.04626567 -22.80465672 12.58387636     6    192    0    0    0
C 1513.12514159 -21.71814644 12.57627265     2    192   196   197   198
H 1513.95529619 -22.77335239 14.05407616     6    195    0    0    0
H 1514.54663272 -21.50348974 11.22117895     6    195    0    0    0
C 1512.37657975 -19.17860088 13.86897622     1    195   199   200   201
H 1514.08925227 -18.10997239 14.33805555     6    198    0    0    0
H 1511.24952644 -19.37323340 15.59693334     6    198    0    0    0
H 1511.26649969 -17.93499448 12.71841960     6    198    0    0    0
H 1497.95717432 -35.03406527 -13.78198302     6     203    0    0    0
C 1498.56808263 -34.07592962 -12.05799870     1     202    204    205    206
H 1496.97839921 -34.00076740 -10.81577552     6     203    0    0    0
H 1499.86262348 -35.08159729 -10.87884584     6     203    0    0    0
C 1499.73167994 -31.52406797 -12.43650975     2     203    207    208    209
H 1498.24037519 -30.50539867 -13.12473427     6     206    0    0    0
H 1500.40886955 -30.58859262 -10.65966397     6     206    0    0    0
C 1501.97714824 -31.51407259 -14.38599305     2     206    210   211   212
H 1503.56612953 -32.61299299 -13.62578667     6     209    0    0    0
H 1501.42573408 -32.54584372 -16.05011502     6     209    0    0    0
C 1502.93322725 -28.92580684 -15.15766371     2     209   213   214   215
H 1503.22567518 -27.76499505 -13.47502993     6    212    0    0    0
H 1504.63594667 -29.25490005 -16.24179968     6    212    0    0    0
C 1501.19646561 -27.44107251 -16.94194775     2    212   216   217   218
H 1500.79138046 -28.53984849 -18.64408388     6    215    0    0    0
H 1499.26722281 -27.13832806 -16.13705088     6    215    0    0    0
C 1502.28656062 -24.87761521 -17.65492129     2    215   219   220   221
H 1502.34802908 -23.53526934 -16.22245828     6    218    0    0    0
H 1504.25734855 -25.30336120 -18.17515276     6    218    0    0    0
C 1501.07894855 -23.70930038 -20.03079498     2    218   222   223   224
H 1500.99307398 -25.12738193 -21.57108935     6    221    0    0    0
H 1499.12977024 -23.30027290 -19.78851007     6    221    0    0    0
C 1502.40853098 -21.58221937 -21.38889020     2    221   225   226   227
H 1502.55445628 -19.78534653 -20.26074974     6    224    0    0    0
H 1504.40167728 -22.19718668 -21.54028555     6    224    0    0    0
C 1501.29204207 -20.78595607 -24.02770956     2    224   228   229   230
H 1501.13641607 -22.33782088 -25.33636786     6    227    0    0    0
H 1499.41718646 -20.01201838 -23.89896858     6    227    0    0    0
C 1502.98140716 -18.66637767 -25.25639684     2    227   231   232   233
H 1503.04590317 -16.93178287 -24.12081681     6    230    0    0    0
H 1504.87812695 -19.60244290 -25.21784355     6    230    0    0    0
C 1502.18303577 -17.84804687 -27.90971043     2    230   234   235   236
H 1502.99683870 -19.06444992 -29.31732152     6    233    0    0    0
H 1500.15775447 -17.54925368 -28.18855085     6    233    0    0    0
C 1503.27889614 -15.25501042 -28.67949478     1    233   237   238   239
H 1502.24082796 -14.18301393 -30.17781636     6    236    0    0    0
H 1505.25780311 -15.23562838 -29.36032764     6    236    0    0    0
H 1503.07784394 -13.84809717 -27.13718072     6    236    0    0    0
H 1476.51410333 -40.78478390 -13.51985004     6     241    0    0    0
C 1477.19119644 -41.21260087 -11.64002948     1     240    242    243    244
H 1478.86067455 -42.30597468 -11.94404178     6     241    0    0    0
H 1477.61229234 -39.41358288 -10.86928862     6     241    0    0    0
C 1474.97244321 -42.34000456 -10.10183852     2     241    245    246    247
H 1474.26313692 -44.11809061 -11.15419566     6     244    0    0    0
H 1475.82037220 -43.26959808 -8.46135474     6     244    0    0    0
C 1472.82726467 -40.44649511 -9.49232654     2     244    248   249   250
H 1471.37752964 -41.27851756 -8.19863335     6     247    0    0    0
H 1473.59049928 -38.69627768 -8.46567544     6     247    0    0    0
C 1471.45049720 -39.51493123 -11.82253416     2     247   251   252   253
H 1470.55661832 -37.66557965 -11.50525017     6    250    0    0    0
H 1472.69542947 -39.11793903 -13.45076625     6    250    0    0    0
C 1469.52429499 -41.46080033 -12.82954091     2    250   254   255   256
H 1470.42578063 -43.27553191 -13.22257232     6    253    0    0    0
H 1468.11099076 -41.97657525 -11.47135826     6    253    0    0    0
C 1468.04671815 -40.53820016 -15.07550758     2    253   257   258   259
H 1466.45621825 -41.84435639 -15.29262588     6    256    0    0    0
H 1467.29511834 -38.72938346 -14.78959951     6    256    0    0    0
C 1469.30608403 -40.55312388 -17.65377350     2    256   260   261   262
H 1471.01102318 -39.49189006 -17.57865358     6    259    0    0    0
H 1469.89588667 -42.47658659 -18.22259305     6    259    0    0    0
C 1467.51643314 -39.61007408 -19.90682302     2    259   263   264   265
H 1465.75447945 -40.69164581 -19.72883361     6    262    0    0    0
H 1466.84900594 -37.68831399 -19.72438141     6    262    0    0    0
C 1468.61571328 -39.97588968 -22.60239625     2    262   266   267   268
H 1470.10153182 -38.65153426 -22.86421274     6    265    0    0    0
H 1469.30388955 -41.85816999 -22.92833132     6    265    0    0    0
C 1466.67641539 -39.22966481 -24.48439882     2    265   269   270   271
H 1465.17529292 -40.58319605 -24.46923112     6    268    0    0    0
H 1465.58608756 -37.60905304 -23.73911638     6    268    0    0    0
C 1467.55834626 -38.63867353 -27.16825144     2    268   272   273   274
H 1468.18772979 -36.65298368 -27.09733321     6    271    0    0    0
H 1469.32486709 -39.83106902 -27.62636084     6    271    0    0    0
C 1465.41886267 -38.74432101 -29.18816549     1    271   275   276   277
H 1464.60897657 -40.48655891 -29.35201711     6    274    0    0    0
H 1465.92578744 -37.85282758 -31.05453254     6    274    0    0    0
H 1463.83817321 -37.54661143 -28.49975596     6    274    0    0    0
H 1493.34650986 -43.17136413 -7.58504683     6     279    0    0    0
C 1492.43073377 -43.83773300 -9.31306011     1     278    280    281    282
H 1493.56601790 -45.22182034 -10.37972540     6     279    0    0    0
H 1490.68051841 -44.65940499 -8.71974913     6     279    0    0    0
C 1491.94750376 -41.37444749 -10.90408723     2     279    283    284    285
H 1491.39252974 -39.76726966 -9.78915648     6     282    0    0    0
H 1493.70720282 -41.06407710 -12.01799613     6     282    0    0    0
C 1489.82655909 -41.74711310 -12.91303123     2     282    286   287   288
H 1490.50159281 -43.31191752 -14.22650345     6     285    0    0    0
H 1488.06427710 -42.27370910 -12.13205502     6     285    0    0    0
C 1489.80275736 -39.27740809 -14.59742069     2     285   289   290   291
H 1489.29811300 -37.78509777 -13.42197791     6    288    0    0    0
H 1491.65855908 -38.68040245 -15.39078579     6    288    0    0    0
C 1488.11395375 -39.78339017 -16.97352409     2    288   292   293   294
H 1488.34588790 -41.63737969 -17.94354045     6    291    0    0    0
H 1486.21182148 -39.60696603 -16.34393730     6    291    0    0    0
C 1488.63669717 -37.85650047 -18.98734244     2    291   295   296   297
H 1488.33377091 -35.87846259 -18.34406852     6    294    0    0    0
H 1490.59073823 -37.87430761 -19.81469041     6    294    0    0    0
C 1487.08657457 -38.19899500 -21.38415145     2    294   298   299   300

   19   -1830.4156462311      7.04E-09 Convergence criterion met
 Total energy in the final basis set = -1828.09199243
 Total job time:  17.82s(wall), 31.86s(cpu)
        *  Thank you very much for using Q-Chem.  Have a nice day.  *

User input: 2 of 2

                  Welcome to Q-Chem
     A Quantum Leap Into The Future Of Chemistry

 Q-Chem 5.4 (devel), Q-Chem, Inc., Pleasanton, CA (2021)

 E. Epifanovsky,  A. T. B. Gilbert,  Xintian Feng,  Joonho Lee,  Yuezhi Mao,
 N. Mardirossian,  P. Pokhilko,  A. White,  M. Wormit,  M. P. Coons,
 A. L. Dempwolff,  Zhengting Gan,  D. Hait,  P. R. Horn,  L. D. Jacobson,
 I. Kaliman,  J. Kussmann,  A. W. Lange,  Ka Un Lao,  D. S. Levine,  Jie Liu,
 S. C. McKenzie,  A. F. Morrison,  K. Nanda,  F. Plasser,  D. R. Rehn,
 M. L. Vidal,  Zhi-Qiang You,  Ying Zhu,  B. Alam,  B. Albrecht,
 A. Aldossary,  E. Alguire,  J. H. Andersen,  D. Barton,  K. Begam,  A. Behn,
 Y. A. Bernard,  E. J. Berquist,  H. Burton,  A. Carreras,  K. Carter-Fenk,
 R. Chakraborty,  A. D. Chien,  K. D. Closser,  V. Cofer-Shabica,
 S. Dasgupta,  Jia Deng,  M. de Wergifosse,  M. Diedenhofen,  Hainam Do,
 S. Ehlert,  Po-Tung Fang,  S. Fatehi,  Qingguo Feng,  T. Friedhoff,
 J. Gayvert,  Qinghui Ge,  G. Gidofalvi,  M. Goldey,  J. Gomes,
 C. Gonzalez-Espinoza,  S. Gulania,  A. Gunina,  M. W. D. Hanson-Heine,
 P. H. P. Harbach,  A. W. Hauser,  M. F. Herbst,  M. Hernandez Vera,
 M. Hodecker,  Z. C. Holden,  S. Houck,  Xunkun Huang,  Kerwin Hui,
 B. C. Huynh,  M. Ivanov,  Hyunjun Ji,  Hanjie Jiang,  B. Kaduk,  S. Kaehler,
 K. Khistyaev,  Jaehoon Kim,  P. Klunzinger,  Z. Koczor-Benda,
 Joong Hoon Koh,  D. Kosenkov,  L. Koulias,  T. Kowalczyk,  C. M. Krauter,
 K. Kue,  A. Kunitsa,  T. Kus,  A. Landau,  K. V. Lawler,  D. Lefrancois,
 S. Lehtola,  Rain Li,  Yi-Pei Li,  Jiashu Liang,  M. Liebenthal,
 Hung-Hsuan Lin,  You-Sheng Lin,  Fenglai Liu,  Kuan-Yu Liu,
 M. Loipersberger,  A. Luenser,  A. Manjanath,  P. Manohar,  E. Mansoor,
 S. F. Manzer,  Shan-Ping Mao,  A. V. Marenich,  T. Markovich,  S. Mason,
 S. A. Maurer,  P. F. McLaughlin,  M. F. S. J. Menger,  J.-M. Mewes,
 S. A. Mewes,  P. Morgante,  J. W. Mullinax,  K. J. Oosterbaan,  G. Paran,
 Alexander C. Paul,  Suranjan K. Paul,  F. Pavosevic,  Zheng Pei,  S. Prager,
 E. I. Proynov,  E. Ramos,  B. Rana,  A. E. Rask,  A. Rettig,  R. M. Richard,
 F. Rob,  E. Rossomme,  T. Scheele,  M. Scheurer,  M. Schneider,
 N. Sergueev,  S. M. Sharada,  W. Skomorowski,  D. W. Small,  C. J. Stein,
 Yu-Chuan Su,  E. J. Sundstrom,  Zhen Tao,  J. Thirman,  T. Tsuchimochi,
 N. M. Tubman,  S. P. Veccham,  O. Vydrov,  J. Wenzel,  J. Witte,  A. Yamada,
 Kun Yao,  S. Yeganeh,  S. R. Yost,  A. Zech,  Igor Ying Zhang,  Xing Zhang,
 Yu Zhang,  D. Zuev,  A. Aspuru-Guzik,  A. T. Bell,  N. A. Besley,
 K. B. Bravaya,  B. R. Brooks,  D. Casanova,  Jeng-Da Chai,  S. Coriani,
 C. J. Cramer,  A. E. DePrince, III,  R. A. DiStasio Jr.,  A. Dreuw,
 B. D. Dunietz,  T. R. Furlani,  W. A. Goddard III,  S. Grimme,
 S. Hammes-Schiffer,  T. Head-Gordon,  W. J. Hehre,  Chao-Ping Hsu,
 T.-C. Jagau,  Yousung Jung,  A. Klamt,  Jing Kong,  D. S. Lambrecht,
 WanZhen Liang,  N. J. Mayhall,  C. W. McCurdy,  J. B. Neaton,
 C. Ochsenfeld,  J. A. Parkhill,  R. Peverati,  V. A. Rassolov,  Yihan Shao,
 L. V. Slipchenko,  T. Stauch,  R. P. Steele,  J. E. Subotnik,
 A. J. W. Thom,  A. Tkatchenko,  D. G. Truhlar,  T. Van Voorhis,
 T. A. Wesolowski,  K. B. Whaley,  H. L. Woodcock III,  P. M. Zimmerman,
 S. Faraji,  P. M. W. Gill,  M. Head-Gordon,  J. M. Herbert,  A. I. Krylov

 Additional authors for Version 5.4.1:
 S. Kotaru,  Shaozhi Li,  Xiangyuan Li,  F. Matz,  A. Molle,  Haisheng Ren,
 Yingli Su,  Hung-Yi Tsai,  C. Utku,  Fang Wang

 Contributors to earlier versions of Q-Chem not listed above:
 R. D. Adamson,  B. Austin,  R. Baer,  J. Baker,  G. J. O. Beran,
 K. Brandhorst,  S. T. Brown,  E. F. C. Byrd,  A. K. Chakraborty,
 G. K. L. Chan,  Chun-Min Chang,  Yunqing Chen,  C.-L. Cheng,
 Siu Hung Chien,  D. M. Chipman,  D. L. Crittenden,  H. Dachsel,
 R. J. Doerksen,  A. D. Dutoi,  R. G. Edgar,  J. Fosso-Tande,
 L. Fusti-Molnar,  D. Ghosh,  A. Ghysels,  A. Golubeva-Zadorozhnaya,
 J. Gonthier,  M. S. Gordon,  S. R. Gwaltney,  G. Hawkins,  J. E. Herr,
 A. Heyden,  S. Hirata,  E. G. Hohenstein,  G. Kedziora,  F. J. Keil,
 C. Kelley,  Jihan Kim,  R. A. King,  R. Z. Khaliullin,  P. P. Korambath,
 W. Kurlancheek,  A. Laurent,  A. M. Lee,  M. S. Lee,  S. V. Levchenko,
 Ching Yeh Lin,  D. Liotard,  E. Livshits,  R. C. Lochan,  I. Lotan,
 L. A. Martinez-Martinez,  P. E. Maslen,  N. Nair,  D. P. O'Neill,
 D. Neuhauser,  E. Neuscamman,  C. M. Oana,  R. Olivares-Amaya,  R. Olson,
 T. M. Perrine,  B. Peters,  P. A. Pieniazek,  A. Prociuk,  Y. M. Rhee,
 J. Ritchie,  M. A. Rohrdanz,  E. Rosta,  N. J. Russ,  H. F. Schaefer III,
 M. W. Schmidt,  N. E. Schultz,  S. Sharma,  N. Shenvi,  C. D. Sherrill,
 A. C. Simmonett,  A. Sodt,  T. Stein,  D. Stuck,  K. S. Thanthiriwatte,
 V. Vanovschi,  L. Vogt,  Tao Wang,  A. Warshel,  M. A. Watson,
 C. F. Williams,  Q. Wu,  X. Xu,  Jun Yang,  W. Zhang,  Yan Zhao

 Please cite Q-Chem as follows:
 Y. Shao et al., Mol. Phys. 113, 184-215 (2015)
 DOI: 10.1080/00268976.2014.952696

 Q-Chem 5.4.1 for Intel X86 EM64T Linux

 Parts of Q-Chem use Armadillo 9.900.5 (Nocturnal Misbehaviour).
 http://arma.sourceforge.net/

 Q-Chem begins on Wed Jun 22 08:05:43 2022

 Host: p09r16n04.grace.hpc.yale.internal
0

     Scratch files written to /home/tl686/scratch60/qchem_dev/scratch/qchem69510//
 Processing $rem in /home/tl686/qchem_dev/qchem/config/preferences:
 Processing $rem in /home/tl686/.qchemrc:
Applying user defined connections for MM calculations
The previous job contains 0 fragments, simply inherited here

 Checking the input file for inconsistencies... 	...done.

--------------------------------------------------------------
User input:
--------------------------------------------------------------

$molecule
READ
$end

$qm_atoms
1:11
$end

$force_field_params
NumAtomTypes 3
AtomType -1   0.0238     3.11   0.2868
AtomType -2   0.07124    3.30   0.6597
AtomType -3  -0.0760     3.09   0.1434
$end

$rem
     JOBTYPE  freq
     METHOD   bp86
     BASIS    def2-msvp
     MAX_SCF_CYCLES   800
     INPUT_BOHR TRUE
     SYM_IGNORE TRUE
     SCF_GUESS     read
     user_connect            true
     qm_mm_interface         ONIOM
     force_field             oplsaa
$end

--------------------------------------------------------------

    4   -1830.4156462310      1.71E-09 Convergence criterion met
 Total energy in the final basis set = -1828.09199243

                    Orbital Energies (a.u.)
 --------------------------------------------------------------

 Alpha MOs
 -- Occupied --
******** -29.6500 -25.6075 -25.5977 -25.5938 -18.9100 -18.8987 -18.8844
-18.8809 -18.8335 -10.0744 -10.0569 -10.0555 -10.0530 -10.0462  -3.3399
 -2.1729  -2.1553  -2.1442  -1.1019  -1.0976  -1.0600  -1.0529  -0.8766
 -0.5947  -0.5404  -0.5330  -0.5265  -0.5226  -0.4691  -0.4646  -0.4606
 -0.4585  -0.4552  -0.4411  -0.4386  -0.4289  -0.4237  -0.4216  -0.4131
 -0.4064  -0.3772  -0.3218  -0.3199  -0.2902  -0.2762  -0.2440  -0.2368

          Ground-State Mulliken Net Atomic Charges

     Atom                 Charge (a.u.)
  ----------------------------------------
      1 Fe                   -0.399393
      2 C                     0.232698
      3 C                     0.169581
      4 C                     0.225260
      5 C                     0.237376
      6 C                     0.173276
      7 O                    -0.048223
      8 O                    -0.305761
      9 O                    -0.113670
     10 O                    -0.056495
     11 O                    -0.114650
  ----------------------------------------
  Sum of atomic charges =     0.000000

                    Cartesian Multipole Moments
 -----------------------------------------------------------------
    Charge (ESU x 10^10)
                -0.0000
    Dipole Moment (Debye)
         X      -1.4357174325      Y      -1.7490235366      Z       1.3488006550
       Tot       2.6343179543
    Quadrupole Moments (Debye-Ang)
        XX   -2313.5211     XY   -1355.8256     YY     -37.9194
        XZ    1053.2079     YZ     -12.3364     ZZ     -68.7215

 Frequency:      -312.93                -306.29                -105.10
 Force Cnst:      0.8558                 0.8284                 0.1070
 Red. Mass:      14.8339                14.9878                16.4347
 IR Intens:        0.000                  0.000                  0.000
 Frequency:       -96.81                  64.60                  84.72
 Force Cnst:      0.0895                 0.0378                 0.0661
 Red. Mass:      16.2149                15.3900                15.6240
 IR Intens:        0.000                  0.000                  0.000
 Frequency:       126.57                 200.18                 235.75
 Force Cnst:      0.1483                 0.3328                 0.5069
 Red. Mass:      15.7153                14.0974                15.4794
 IR Intens:        0.000                  0.000                  0.000
 Frequency:       263.35                 371.75                 395.67
 Force Cnst:      0.5938                 1.0454                 1.2164
 Red. Mass:      14.5320                12.8382                13.1870
 IR Intens:        0.000                  0.000                  0.000
 Frequency:       435.33                 448.46                 472.07
 Force Cnst:      1.5268                 1.5568                 1.8727
 Red. Mass:      13.6735                13.1382                14.2629
 IR Intens:        0.000                  0.000                  0.000
 Frequency:       481.61                 539.18                 592.84
 Force Cnst:      1.8023                 2.2221                 3.1093
 Red. Mass:      13.1885                12.9731                15.0151
 IR Intens:        0.000                  0.000                  0.000
 Frequency:       601.36                 636.95                 695.52
 Force Cnst:      3.2732                 3.8306                 4.4607
 Red. Mass:      15.3619                16.0250                15.6505
 IR Intens:        0.000                  0.000                  0.000
 Frequency:       703.54                 891.27                2037.06
 Force Cnst:      4.3865                 6.9108                32.4666
 Red. Mass:      15.0417                14.7659                13.2795
 IR Intens:        0.000                  0.000                  0.000
 Frequency:      2085.73                2247.25                2454.81
 Force Cnst:     33.9473                39.7382                47.4467
 Red. Mass:      13.2447                13.3553                13.3635
 IR Intens:        0.000                  0.000                  0.000

 STANDARD THERMODYNAMIC QUANTITIES AT   298.15 K  AND     1.00 ATM

   This Molecule has  4 Imaginary Frequencies
   Zero point vibrational energy:       24.396 kcal/mol

   Atom    1 Element Fe Has Mass   55.93490
   Atom    2 Element C  Has Mass   12.00000
   Atom    3 Element C  Has Mass   12.00000
   Atom    4 Element C  Has Mass   12.00000
   Atom    5 Element C  Has Mass   12.00000
   Atom    6 Element C  Has Mass   12.00000
   Atom    7 Element O  Has Mass   15.99491
   Atom    8 Element O  Has Mass   15.99491
   Atom    9 Element O  Has Mass   15.99491
   Atom   10 Element O  Has Mass   15.99491
   Atom   11 Element O  Has Mass   15.99491
   Molecular Mass:   195.909450 amu
   Principal axes and moments of inertia in amu*Bohr^2:
                             1           2           3
    Eigenvalues --     1887.29546  2154.14017  2309.99261
          X              -0.30429     0.24895     0.91947
          Y               0.68964    -0.60828     0.39292
          Z               0.65712     0.75367     0.01341
   Rotational Symmetry Number is   1
   The Molecule is an Asymmetric Top
   Translational Enthalpy:        0.889 kcal/mol
   Rotational Enthalpy:           0.889 kcal/mol
   Vibrational Enthalpy:         28.418 kcal/mol
   gas constant (RT):             0.592 kcal/mol
   Translational Entropy:        41.722  cal/mol.K
   Rotational Entropy:           30.619  cal/mol.K
   Vibrational Entropy:          24.451  cal/mol.K

   Total Enthalpy:               30.788 kcal/mol
   Total Entropy:                96.792  cal/mol.K

 Total job time:  123.56s(wall), 243.82s(cpu)
        *  Thank you very much for using Q-Chem.  Have a nice day.  *
