 Q-Chem 5.4 (devel), Q-Chem, Inc., Pleasanton, CA (2021)
 Q-Chem 5.4.1 for Intel X86 EM64T Linux

User input:
--------------------------------------------------------------
$molecule
0   1
Fe 361.45569123 11.42641913 -39.97087054    -1  0   0   0   0
C 359.25022291 12.78357543 -42.06223253    -2  0   0   0   0
C 364.80999490 11.03057965 -40.74422684    -2  0   0   0   0
C 362.07442777 14.60097812 -39.01663550    -2  0   0   0   0
C 361.09921844 10.15852736 -36.89217408    -2  0   0   0   0
C 360.69511889 8.38488389 -41.40688121    -2  0   0   0   0
O 357.84999516 13.90123845 -43.31993173    -3  0   0   0   0
O 366.95678433 10.79847437 -41.27729250    -3  0   0   0   0
O 362.66489341 16.68233239 -38.62810475    -3  0   0   0   0
O 360.78121538 9.20959538 -34.94343311    -3  0   0   0   0
O 359.98762045 6.55874159 -42.39183397    -3  0   0   0   0
H 354.29596539 37.28047136 -37.11733244      6     13    0    0    0
C 352.57849159 37.80772550 -38.10878121     1     12    14    15    16
H 352.35253957 39.87155277 -37.79475950     6     13    0    0    0
H 352.81285787 37.36068314 -40.11277079     6     13    0    0    0
C 350.21741554 36.51167539 -37.19500434     2     13    17    18    19
H 350.11963375 36.79232804 -35.10095779     6     16    0    0    0
H 348.40271045 37.44118684 -37.89898612     6     16    0    0    0
C 350.70957664 33.60673273 -37.60094532     2     16    20   21   22
H 350.99017369 33.15118566 -39.60283010     6     19    0    0    0
H 352.43840228 33.10348996 -36.73530405     6     19    0    0    0
C 348.58408837 32.03988409 -36.32616543     2     19   23   24   25
H 348.65502825 32.58910530 -34.34968634     6    22    0    0    0
H 346.94993970 32.93298587 -37.27576083     6    22    0    0    0
C 348.65145222 29.24423650 -36.77942471     2    22   26   27   28
H 348.37211925 29.05450447 -38.73717761     6    25    0    0    0
H 350.54420860 28.54582792 -36.40658840     6    25    0    0    0
C 346.75507833 27.88523281 -34.85512209     2    25   29   30   31
H 347.31154182 28.62504113 -33.03364075     6    28    0    0    0
H 344.92700840 28.67274095 -35.29914987     6    28    0    0    0
C 347.26484866 25.05800614 -35.06229394     2    28   32   33   34
H 346.27265603 24.21168180 -36.79086810     6    31    0    0    0
H 349.31077614 24.66838352 -35.01982093     6    31    0    0    0
C 345.96492753 23.50923978 -32.96183472     2    31   35   36   37
H 346.30312435 24.26421726 -30.95802429     6    34    0    0    0
H 343.97710440 23.99470234 -33.03796663     6    34    0    0    0
C 346.09883141 20.61914444 -33.06230378     2    34   38   39   40
H 345.25131369 19.89032600 -34.78934451     6    37    0    0    0
H 348.05552275 20.02218768 -33.28742190     6    37    0    0    0
C 344.73757868 19.26146603 -30.80808535     2    37   41   42   43
H 345.49253347 19.79913993 -28.95504563     6    40    0    0    0
H 342.80069896 19.75696292 -30.85525416     6    40    0    0    0
C 344.83566750 16.34117532 -31.02574532     2    40   44   45   46
H 343.52742752 16.03145410 -32.60029526     6    43    0    0    0
H 346.66942702 15.56498248 -31.79094107     6    43    0    0    0
C 344.36628032 15.12699830 -28.53016894     1    43   47   48   49
H 346.06349239 15.63534909 -27.27902802     6    46    0    0    0
H 343.92983900 13.13988718 -28.94101901     6    46    0    0    0
H 342.64475169 15.76718608 -27.66315015     6    46    0    0    0
H 352.49635565 8.18547007 -39.78966183     6     51    0    0    0
C 354.27833527 9.12435489 -39.70480345     1     50    52    53    54
H 355.62919126 7.63008542 -39.27313548     6     51    0    0    0
H 354.56767970 9.81732259 -41.60283238     6     51    0    0    0
C 354.13814019 11.35290660 -37.85687570     2     51    55    56    57
H 355.76938391 12.55879570 -37.81528402     6     54    0    0    0
H 352.84778100 12.81950014 -38.50850707     6     54    0    0    0
C 353.59605369 10.60256189 -35.03309449     2     54    58   59   60
H 354.84863767 9.00396449 -34.54131830     6     57    0    0    0
H 354.42346035 12.05243941 -33.84611380     6     57    0    0    0
C 350.76490924 10.15144484 -34.48293081     2     57   61   62   63
H 349.65618770 11.59970388 -35.40178502     6    60    0    0    0
H 350.33246624 8.38525859 -35.44063759     6    60    0    0    0
C 350.23390314 9.88343894 -31.80570374     2    60   64   65   66
H 351.41436070 8.38714960 -31.07192624     6    63    0    0    0
H 350.54146990 11.74582346 -30.74544480     6    63    0    0    0
C 347.66652726 9.08362519 -30.89720752     2    63   67   68   69
H 347.44557599 9.39667521 -28.93689358     6    66    0    0    0
H 346.31848929 10.36771152 -31.87403064     6    66    0    0    0
C 347.13168142 6.24090152 -31.62844409     2    66   70   71   72
H 347.22831360 6.14173574 -33.83162524     6    69    0    0    0
H 348.52101797 4.86902379 -30.82528537     6    69    0    0    0
C 344.38048245 5.15036349 -31.07441389     2    69   73   74   75
H 344.15522775 4.80209173 -29.05427251     6    72    0    0    0
H 342.89311335 6.42663666 -31.39693810     6    72    0    0    0
C 343.90233572 2.59287853 -32.47327521     2    72   76   77   78
H 344.60117205 2.63431707 -34.36632253     6    75    0    0    0
H 344.92426346 1.11078744 -31.53190527     6    75    0    0    0
C 341.08451610 1.79209061 -32.86282366     2    75   79   80   81
H 340.42790104 0.97360700 -31.18516561     6    78    0    0    0
H 339.95405738 3.53673916 -33.24213937     6    78    0    0    0
C 340.62125359 -0.02645266 -35.06887951     2    78   82   83   84
H 341.60539375 0.95049740 -36.63720621     6    81    0    0    0
H 341.55826181 -1.79685942 -34.74299669     6    81    0    0    0
C 337.91083064 -0.69396189 -35.50753196     1    81   85   86   87
H 337.47819275 -1.93279731 -37.26906186     6    84    0    0    0
H 336.75174577 0.91560879 -35.79506383     6    84    0    0    0
H 337.18525611 -1.49527754 -33.67464237     6    84    0    0    0
H 348.14171236 41.01140471 -20.28509602     6     89    0    0    0
C 346.24028385 40.67365074 -19.47769815     1     88    90    91    92
H 346.47144627 39.80757841 -17.52722382     6     89    0    0    0
H 345.42255876 42.55154801 -19.17970469     6     89    0    0    0
C 344.85114914 38.86040649 -21.23516095     2     89    93    94    95
H 344.65543737 39.60990226 -23.07366407     6     92    0    0    0
H 346.13831647 37.35965713 -21.52125112     6     92    0    0    0
C 342.19084988 38.10242382 -20.22093799     2     92    96   97   98
H 342.41179708 37.36080874 -18.36114042     6     95    0    0    0
H 341.06968084 39.81128110 -20.14700240     6     95    0    0    0
C 340.72233705 36.15560250 -21.85933952     2     95   99   100   101
H 340.39957253 36.67177169 -23.77428935     6    98    0    0    0
H 341.97261583 34.46960876 -21.95072522     6    98    0    0    0
C 338.02290942 35.57973213 -21.15098458     2    98   102   103   104
H 337.78600186 35.49947308 -19.14911373     6    101    0    0    0
H 336.92690475 37.22928333 -21.54881616     6    101    0    0    0
C 337.03748173 33.13475140 -22.48923986     2    101   105   106   107
H 336.99669767 33.23734826 -24.55223061     6    104    0    0    0
H 338.42273495 31.63794845 -22.07627292     6    104    0    0    0
C 334.42121550 32.31200636 -21.37681116     2    104   108   109   110
H 334.53126348 32.36075966 -19.23840525     6    107    0    0    0
H 332.97396943 33.75998515 -21.79449967     6    107    0    0    0
C 333.48593108 29.70350653 -22.40653482     2    107   111   112   113
H 333.88957965 29.70420596 -24.40474549     6    110    0    0    0
H 334.72382568 27.97768548 -21.79216082     6    110    0    0    0
C 330.60009778 29.14912849 -21.88853175     2    110   114   115   116
H 330.22871834 29.12234286 -19.79039363     6    113    0    0    0
H 329.51727225 30.72317179 -22.65824228     6    113    0    0    0
C 329.39515714 26.92867169 -23.33880571     2    113   117   118   119
H 329.40005932 26.86704558 -25.43612627     6    116    0    0    0
H 330.44368573 25.23149970 -22.88468188     6    116    0    0    0
C 326.62303544 26.59316667 -22.57333441     2    116   120   121   122
H 325.81179784 24.71337222 -23.02128280     6    119    0    0    0
H 326.20808054 26.72157882 -20.68176993     6    119    0    0    0
C 325.14154785 28.61222714 -23.98993398     1    119   123   124   125
H 323.11353342 28.51994041 -23.77897480     6    122    0    0    0
H 325.10407946 28.71263787 -26.04443572     6    122    0    0    0
H 325.70773344 30.48754536 -23.13793041     6    122    0    0    0
H 360.83993621 29.56724759 -15.99156587     6     127    0    0    0
C 360.93521320 28.58895044 -17.81001453     1     126    128    129    130
H 360.50828545 26.51174548 -17.54520375     6     127    0    0    0
H 359.55088267 29.42147905 -18.95148127     6     127    0    0    0
C 363.53231230 29.22237339 -19.19122373     2     127    131    132    133
H 363.67879846 31.09998379 -19.75061198     6     130    0    0    0
H 365.03590248 29.06246395 -17.83274853     6     130    0    0    0
C 364.18937739 27.32937424 -21.33092315     2     130    134   135   136
H 364.70694086 25.62361061 -20.50814836     6     133    0    0    0
H 362.80341358 26.88654708 -22.72504422     6     133    0    0    0
C 366.49644292 28.49636135 -22.73194714     2     133   137   138   139
H 365.83660756 30.24199520 -23.76809807     6    136    0    0    0
H 367.89137573 28.99363211 -21.33595596     6    136    0    0    0
C 367.85994462 26.67842605 -24.58671725     2    136   140   141   142
H 368.98237396 25.50296221 -23.25904789     6    139    0    0    0
H 366.61345672 25.32507641 -25.57857982     6    139    0    0    0
C 369.48401357 28.01533330 -26.43399522     2    139   143   144   145
H 368.15470510 29.00813948 -27.65146340     6    142    0    0    0
H 370.42558659 29.36841511 -25.28640695     6    142    0    0    0
C 371.13665947 26.24285397 -28.08111523     2    142   146   147   148
H 371.94704278 24.86650218 -26.71427190     6    145    0    0    0
H 370.11554948 25.08485745 -29.44277586     6    145    0    0    0
C 373.13355400 27.58467869 -29.59294850     2    145   149   150   151
H 372.12236805 29.07302859 -30.74397498     6    148    0    0    0
H 374.17943680 28.80217832 -28.39836278     6    148    0    0    0
C 374.91918279 25.94791415 -31.18299798     2    148   152   153   154
H 375.55304978 24.41856721 -29.92141079     6    151    0    0    0
H 373.86676371 24.91699365 -32.63363533     6    151    0    0    0
C 377.22904269 27.33764856 -32.13017808     2    151   155   156   157
H 376.67856186 28.93440433 -33.43342705     6    154    0    0    0
H 378.20548138 28.29356321 -30.47206380     6    154    0    0    0
C 379.12772054 25.64227841 -33.45976314     2    154   158   159   160
H 379.69866063 24.23597113 -32.00639192     6    157    0    0    0
H 378.03846416 24.67572680 -35.00570696     6    157    0    0    0
C 381.27351551 27.14171649 -34.45562783     1    157   161   162   163
H 382.83309915 26.03989218 -35.21614122     6    160    0    0    0
H 382.32138510 28.23313365 -32.99659183     6    160    0    0    0
H 380.58341755 28.37002477 -35.90239234     6    160    0    0    0
H 349.43603081 17.06775912 -4.15572307     6     165    0    0    0
C 350.30342210 17.77169146 -5.88103555     1     164    166    167    168
H 350.44101583 16.15324433 -7.05102148     6     165    0    0    0
H 349.16320514 19.06514704 -6.96865814     6     165    0    0    0
C 352.72376323 19.14384464 -5.39672346     2     165    169    170    171
H 351.98707906 20.77101860 -4.30770572     6     168    0    0    0
H 354.11731958 18.10167797 -4.34094455     6     168    0    0    0
C 354.24755441 20.03823176 -7.73399427     2     168    172   173   174
H 355.01708748 18.54508545 -8.93953419     6     171    0    0    0
H 352.94557511 21.12359541 -9.02960049     6     171    0    0    0
C 356.57819497 21.63523280 -6.80088495     2     171   175   176   177
H 355.85400907 22.97632776 -5.38762155     6    174    0    0    0
H 357.80741843 20.18552047 -5.99673597     6    174    0    0    0
C 358.04013657 22.92369097 -8.87279391     2    174   178   179   180
H 358.55381791 21.61604067 -10.40381637     6    177    0    0    0
H 356.73600014 24.37620265 -9.56009066     6    177    0    0    0
C 360.64965888 23.97783872 -8.25849354     2    177   181   182   183
H 360.49209769 25.16379593 -6.56380023     6    180    0    0    0
H 361.73182515 22.35156470 -7.64390672     6    180    0    0    0
C 362.01408074 25.56179330 -10.40044030     2    180   184   185   186
H 362.69144799 24.12173166 -11.77032666     6    183    0    0    0
H 360.58790277 26.84731461 -11.21464882     6    183    0    0    0
C 364.46959029 26.92835891 -9.38172148     2    183   187   188   189
H 363.91337896 28.60123901 -8.30843555     6    186    0    0    0
H 365.34201579 25.70083935 -8.14493295     6    186    0    0    0
C 366.38812925 27.68870153 -11.49968991     2    186   190   191   192
H 366.59931209 25.66161682 -12.32516761     6    189    0    0    0
H 365.25353415 28.86890166 -12.80897169     6    189    0    0    0
C 368.73884210 29.04963354 -10.48945586     2    189   193   194   195
H 368.19667034 30.50777229 -9.04704575     6    192    0    0    0
H 369.79009747 27.65205557 -9.44815838     6    192    0    0    0
C 370.28427535 30.09437818 -12.65502533     2    192   196   197   198
H 370.90797730 28.49834071 -13.77435897     6    195    0    0    0
H 369.26461349 31.17350577 -13.99685435     6    195    0    0    0
C 372.60122802 31.68942710 -11.79143420     1    195   199   200   201
H 373.13272308 32.81194491 -13.38962178     6    198    0    0    0
H 374.15431814 30.54868892 -11.36571282     6    198    0    0    0
H 372.16150917 32.87906165 -10.14568683     6    198    0    0    0
H 358.36544797 10.86606366 -9.81907454     6     203    0    0    0
C 357.50848987 11.51170228 -8.18470102     1     202    204    205    206
H 358.38272045 10.59854422 -6.63259640     6     203    0    0    0
H 357.76265336 13.52549552 -8.16697919     6     203    0    0    0
C 354.67618529 10.75300000 -8.28312076     2     203    207    208    209
H 353.95229817 10.80151224 -6.31694252     6     206    0    0    0
H 353.65501081 12.43986102 -9.12643192     6     206    0    0    0
C 353.82734222 8.30281936 -9.45671809     2     206    210   211   212
H 351.77943395 8.61100822 -10.07305436     6     209    0    0    0
H 354.83354777 7.90283988 -11.21855113     6     209    0    0    0
C 353.80153944 6.16627430 -7.57029561     2     209   213   214   215
H 355.63494082 6.15198670 -6.55532089     6    212    0    0    0
H 352.30175971 6.62135438 -6.25939291     6    212    0    0    0
C 353.49695125 3.40363318 -8.69088610     2    212   216   217   218
H 351.70894936 3.19889795 -9.40691094     6    215    0    0    0
H 354.82246055 3.25663083 -10.34782427     6    215    0    0    0
C 353.91891601 1.34285357 -6.64526736     2    215   219   220   221
H 355.66877994 1.74398265 -5.69203865     6    218    0    0    0
H 352.07415813 1.51636300 -5.44844192     6    218    0    0    0
C 353.90866519 -1.18730743 -7.90356648     2    218   222   223   224
H 352.27980170 -1.35334578 -9.06059301     6    221    0    0    0
H 355.64714408 -1.21291564 -9.11567404     6    221    0    0    0
C 353.99591332 -3.23173709 -5.82134232     2    221   225   226   227
H 355.63491791 -3.09542866 -4.63425488     6    224    0    0    0
H 352.31717885 -3.24426141 -4.71436249     6    224    0    0    0
C 354.20479406 -5.66515063 -7.30456683     2    224   228   229   230
H 352.56016214 -5.87000908 -8.62527007     6    227    0    0    0
H 356.06565605 -5.36036154 -8.44012761     6    227    0    0    0
C 354.30758256 -8.01347463 -5.56861141     2    227   231   232   233
H 355.99937063 -8.01358857 -4.48480768     6    230    0    0    0
H 352.79056121 -7.88549728 -4.10624111     6    230    0    0    0
C 354.27009436 -10.49170407 -7.16542113     2    230   234   235   236
H 354.77333981 -10.09641371 -9.20453349     6    233    0    0    0
H 355.62333963 -11.74483229 -6.18081345     6    233    0    0    0
C 351.76459118 -11.76239631 -7.19986815     1    233   237   238   239
H 351.92706611 -13.69190025 -7.56101074     6    236    0    0    0
H 350.76798360 -10.99646108 -8.77452921     6    236    0    0    0
H 350.65011894 -11.68130768 -5.46501742     6    236    0    0    0
H 337.89464121 9.28407747 -32.59730510     6     241    0    0    0
C 338.66797179 10.86338832 -31.52300618     1     240    242    243    244
H 340.65899468 10.42700094 -31.62996527     6     241    0    0    0
H 338.30825864 12.64527279 -32.55032403     6     241    0    0    0
C 338.18405459 11.27988985 -28.65529022     2     241    245    246    247
H 338.91844184 9.62129157 -27.62955086     6     244    0    0    0
H 339.29048043 12.93697450 -28.07779719     6     244    0    0    0
C 335.33295053 11.75805653 -28.24990111     2     244    248   249   250
H 335.00195138 11.92816227 -26.20871652     6     247    0    0    0
H 334.82460087 13.62730682 -29.13601996     6     247    0    0    0
C 333.52486203 9.47859485 -29.14771420     2     247   251   252   253
H 331.57120392 9.83356315 -28.95636661     6    250    0    0    0
H 333.98733820 9.25879973 -31.18789521     6    250    0    0    0
C 334.03980183 6.99754428 -27.58660754     2    250   254   255   256
H 335.70867459 6.26705575 -28.48493870     6    253    0    0    0
H 334.49333227 7.36277207 -25.66159060     6    253    0    0    0
C 331.98603705 4.77294424 -27.65177808     2    253   257   258   259
H 332.21994066 3.60084321 -26.09479710     6    256    0    0    0
H 330.03080256 5.47937228 -27.52871645     6    256    0    0    0
C 331.76883405 3.33671220 -30.22887799     2    256   260   261   262
H 331.44792202 4.52474997 -31.83147656     6    259    0    0    0
H 333.62037645 2.53297433 -30.79482304     6    259    0    0    0
C 329.59131550 1.30404058 -30.31147164     2    259   263   264   265
H 329.91080450 0.00601629 -28.91220525     6    262    0    0    0
H 327.78413541 2.07486762 -29.83610116     6    262    0    0    0
C 329.40421038 0.27077947 -33.01655075     2    262   266   267   268
H 327.39788179 0.28487180 -33.43918243     6    265    0    0    0
H 330.37391917 1.24037723 -34.48378320     6    265    0    0    0
C 330.38506503 -2.39482207 -33.05958358     2    265   269   270   271
H 332.25012724 -2.64829296 -32.53243190     6    268    0    0    0
H 329.28955848 -3.51899885 -31.71864328     6    268    0    0    0
C 330.17544920 -3.41558391 -35.76525914     2    268   272   273   274
H 328.25187064 -3.36795049 -36.42767193     6    271    0    0    0
H 331.27871023 -2.28228388 -37.00639738     6    271    0    0    0
C 331.30346749 -6.14205114 -36.01765422     1    271   275   276   277
H 333.28087703 -5.93634665 -36.09924165     6    274    0    0    0
H 330.53537346 -6.83366798 -37.93469750     6    274    0    0    0
H 330.75821641 -7.37154889 -34.45662941     6    274    0    0    0
H 346.21620234 28.44435845 -8.68919527     6     279    0    0    0
C 345.35337178 26.97999696 -9.88611394     1     278    280    281    282
H 343.64941637 26.23582304 -9.12755407     6     279    0    0    0
H 345.01097750 28.06772189 -11.72593095     6     279    0    0    0
C 347.10438665 24.86983365 -10.61648686     2     279    283    284    285
H 348.49852713 25.38653570 -12.11941638     6     282    0    0    0
H 348.25369671 24.50219128 -9.13467899     6     282    0    0    0
C 345.81716336 22.34181377 -11.42645307     2     282    286   287   288
H 344.80364741 21.50017509 -9.78548008     6     285    0    0    0
H 344.48058321 22.62124243 -12.95114946     6     285    0    0    0
C 347.49594752 20.20898027 -12.26109753     2     285   289   290   291
H 348.58109807 20.77984007 -13.95984199     6    288    0    0    0
H 349.01331239 19.88086401 -10.91334586     6    288    0    0    0
C 346.03229789 17.80009178 -12.67182427     2    288   292   293   294
H 345.15055932 17.36512311 -10.90596805     6    291    0    0    0
H 344.71538446 17.86765207 -14.39876545     6    291    0    0    0
C 347.83918054 15.53888215 -13.27846489     2    291   295   296   297
H 348.29481946 15.57503160 -15.28532853     6    294    0    0    0
H 349.51318494 15.61166717 -12.12214323     6    294    0    0    0
C 346.70155618 12.97128642 -12.49512826     2    294   298   299   300

   16   -1830.5229400549      2.79E-09 Convergence criterion met
 Total energy in the final basis set = -1828.21021297

                    Orbital Energies (a.u.)
 --------------------------------------------------------------

 Alpha MOs
 -- Occupied --
******** -29.6367 -25.5957 -25.5854 -25.5788 -18.8915 -18.8850 -18.8812
-18.8717 -18.8709 -10.0598 -10.0546 -10.0498 -10.0385 -10.0366  -3.3222
 -2.1566  -2.1388  -2.1220  -1.0658  -1.0589  -1.0483  -1.0475  -1.0458
 -0.5768  -0.5287  -0.5216  -0.5151  -0.5137  -0.4579  -0.4487  -0.4392
 -0.4371  -0.4351  -0.4298  -0.4280  -0.4184  -0.4157  -0.4096  -0.4085
 -0.4066  -0.4002  -0.3941  -0.3807  -0.2834  -0.2714  -0.2396  -0.2196

          Ground-State Mulliken Net Atomic Charges

     Atom                 Charge (a.u.)
  ----------------------------------------
      1 Fe                   -0.513739
      2 C                     0.184957
      3 C                     0.252944
      4 C                     0.195067
      5 C                     0.231131
      6 C                     0.216667
      7 O                    -0.117500
      8 O                    -0.120140
      9 O                    -0.111314
     10 O                    -0.116838
     11 O                    -0.101235
  ----------------------------------------
  Sum of atomic charges =     0.000000

                    Cartesian Multipole Moments
 -----------------------------------------------------------------
    Charge (ESU x 10^10)
                -0.0000
    Dipole Moment (Debye)
         X       0.2393354145      Y      -0.2582256668      Z      -0.0563559663
       Tot       0.3565640624
    Quadrupole Moments (Debye-Ang)
        XX      21.5613     XY     -47.8931     YY     -72.2836
        XZ     -15.9289     YZ       6.3124     ZZ     -67.2348

 Total job time:  29.35s(wall), 25.50s(cpu)
        *  Thank you very much for using Q-Chem.  Have a nice day.  *
