 Q-Chem 5.4 (devel), Q-Chem, Inc., Pleasanton, CA (2021)
 Q-Chem 5.4.1 for Intel X86 EM64T Linux

User input:
--------------------------------------------------------------
$molecule
0   1
 Fe 74.16842989 34.25276281 -43.12962104    -1  0   0   0   0
C 72.71754109 33.63315170 -40.02393569    -2  0   0   0   0
C 74.60791457 37.04049508 -45.20431389    -2  0   0   0   0
C 77.07917088 35.28676135 -41.39944401    -2  0   0   0   0
C 75.94898210 31.61941462 -44.58416612    -2  0   0   0   0
C 71.14940699 33.64841725 -44.43045918    -2  0   0   0   0
O 71.98924187 33.26340314 -38.01231316    -3  0   0   0   0
O 74.84522155 38.81689217 -46.49377900    -3  0   0   0   0
O 78.83003927 35.89642860 -40.26520068    -3  0   0   0   0
O 76.90959342 29.87379937 -45.50032310    -3  0   0   0   0
O 69.16838158 33.39789581 -45.35095247    -3  0   0   0   0
H 78.24176874 21.34997751 -20.67013912      6     13    0    0    0
C 76.26871179 21.82513750 -20.28973009     1     12    14    15    16
H 75.93457976 21.63891321 -18.18304202     6     13    0    0    0
H 75.86692042 23.75653959 -20.81325533     6     13    0    0    0
C 74.38954148 20.04212738 -21.57386964     2     13    17    18    19
H 74.53472875 18.15808883 -20.77598570     6     16    0    0    0
H 72.51801512 20.70962504 -21.16190183     6     16    0    0    0
C 74.86809898 19.64355502 -24.37510922     2     16    20   21   22
H 74.44527768 21.56350521 -25.22406990     6     19    0    0    0
H 76.82717928 19.31486331 -24.66933233     6     19    0    0    0
C 73.82933078 17.31415118 -25.60609397     2     19   23   24   25
H 74.10766534 15.79996884 -24.30987964     6    22    0    0    0
H 71.73236231 17.49869241 -25.68283155     6    22    0    0    0
C 74.67492410 16.97076937 -28.38472713     2    22   26   27   28
H 73.82110931 18.53025667 -29.40670350     6    25    0    0    0
H 76.57891839 17.35075824 -28.60025538     6    25    0    0    0
C 74.11169403 14.33769626 -29.50061462     2    25   29   30   31
H 74.55117025 12.76202209 -28.12449281     6    28    0    0    0
H 72.20941675 14.07717446 -29.73633425     6    28    0    0    0
C 75.56429756 13.93401129 -32.02079988     2    28   32   33   34
H 75.17842314 15.76336646 -33.18962103     6    31    0    0    0
H 77.58592654 13.95112736 -31.61366815     6    31    0    0    0
C 74.64801836 11.41890699 -33.10199988     2    31   35   36   37
H 76.25063135 10.09690384 -32.52232507     6    34    0    0    0
H 73.01007510 10.79579242 -32.06444166     6    34    0    0    0
C 74.40209446 11.41084557 -35.88106301     2    34   38   39   40
H 73.01498417 12.81307793 -36.57359311     6    37    0    0    0
H 76.37388205 11.98261282 -36.70208816     6    37    0    0    0
C 73.93815256 8.80186811 -36.91395894     2    37   41   42   43
H 75.60018496 7.64183269 -36.48449175     6    40    0    0    0
H 72.37820016 7.83861639 -35.91191022     6    40    0    0    0
C 73.43817010 8.92110195 -39.72495985     2    40   44   45   46
H 72.40006589 10.64016376 -40.17408588     6    43    0    0    0
H 75.16597518 9.02207033 -40.69107936     6    43    0    0    0
C 72.05677830 6.55385966 -40.81259981     1    43   47   48   49
H 72.91007506 4.83015718 -40.17152646     6    46    0    0    0
H 72.13668501 6.40516064 -42.90920796     6    46    0    0    0
H 69.91256877 6.30466935 -40.59756597     6    46    0    0    0
H 69.31128950 25.06456994 -44.50470162     6     51    0    0    0
C 70.32012947 26.73611290 -43.85602270     1     50    52    53    54
H 71.78650991 27.52475295 -45.05061366     6     51    0    0    0
H 68.70925616 28.04614242 -44.06218200     6     51    0    0    0
C 71.27078041 26.67913112 -40.99262702     2     51    55    56    57
H 72.14432906 28.45029555 -40.63230445     6     54    0    0    0
H 69.90712393 26.59406898 -39.51018856     6     54    0    0    0
C 73.42910971 24.74561597 -40.88996410     2     54    58   59   60
H 74.82253818 25.41060364 -42.31924949     6     57    0    0    0
H 73.97146247 24.56766361 -38.93425271     6     57    0    0    0
C 72.63578933 22.08506995 -41.80957784     2     57   61   62   63
H 70.71866681 21.49911652 -41.14618670     6    60    0    0    0
H 72.71555119 22.30973342 -43.84354972     6    60    0    0    0
C 74.49579615 19.93687443 -41.11742256     2    60   64   65   66
H 76.28429690 20.14398835 -41.92291898     6    63    0    0    0
H 74.88777038 20.19451030 -39.16136190     6    63    0    0    0
C 73.32176876 17.27438990 -41.60908186     2    63   67   68   69
H 74.62433050 15.80656360 -40.86658174     6    66    0    0    0
H 71.70389553 16.96931335 -40.38395349     6    66    0    0    0
C 72.73276314 16.62536565 -44.32847785     2    66   70   71   72
H 71.05846232 17.74854980 -44.91759425     6    69    0    0    0
H 74.32294825 17.16582152 -45.46895286     6    69    0    0    0
C 71.94741588 13.88210085 -44.99165297     2    69   73   74   75
H 73.50954841 12.63612063 -44.57552084     6    72    0    0    0
H 70.35598402 13.40499862 -43.80605454     6    72    0    0    0
C 70.98904796 13.74855231 -47.80531999     2    72   76   77   78
H 69.20623131 14.97295584 -47.91111633     6    75    0    0    0
H 72.55665706 14.64959400 -48.94094425     6    75    0    0    0
C 70.69923837 11.01648698 -48.83053052     2    75   79   80   81
H 72.34978554 9.82157966 -48.69669291     6    78    0    0    0
H 69.26289457 10.10479527 -47.69865423     6    78    0    0    0
C 70.04054449 11.07249013 -51.63373154     2    78   82   83   84
H 68.51011578 12.38103937 -51.92743840     6    81    0    0    0
H 71.76795094 11.59464267 -52.70824351     6    81    0    0    0
C 69.10225033 8.60140520 -52.73986329     1    81   85   86   87
H 69.10336219 8.64258328 -54.88499435     6    84    0    0    0
H 67.29407648 8.04549024 -51.95719244     6    84    0    0    0
H 70.36371988 7.02943755 -52.35971060     6    84    0    0    0
H 96.94158808 12.53620083 -28.35965311     6     89    0    0    0
C 96.51154245 10.70048623 -28.84070564     1     88    90    91    92
H 97.73059577 10.37938527 -30.38300529     6     89    0    0    0
H 97.16067701 9.49410157 -27.27700687     6     89    0    0    0
C 93.65882982 10.10898589 -29.51729955     2     89    93    94    95
H 92.79714341 10.36947183 -27.72864022     6     92    0    0    0
H 92.81769567 11.51395968 -30.82237428     6     92    0    0    0
C 93.14224534 7.27795355 -29.83078235     2     92    96   97   98
H 93.78080397 6.53332977 -31.58599629     6     95    0    0    0
H 94.30822983 6.52376710 -28.25507670     6     95    0    0    0
C 90.41556182 6.58518784 -29.60691894     2     95   99   100   101
H 89.31607027 7.52596110 -28.06529741     6    98    0    0    0
H 89.56395401 7.10285030 -31.33313551     6    98    0    0    0
C 89.76947048 3.71596755 -29.24546726     2    98   102   103   104
H 91.32947161 2.55139429 -28.44375503     6    101    0    0    0
H 88.08683386 3.82481133 -28.00852267     6    101    0    0    0
C 89.24757754 2.29851922 -31.82860632     2    101   105   106   107
H 87.80411820 3.40238912 -32.87073275     6    104    0    0    0
H 90.98443847 1.96437655 -32.73215903     6    104    0    0    0
C 88.29069247 -0.37199937 -31.45483501     2    104   108   109   110
H 89.68572155 -1.54066986 -30.52377431     6    107    0    0    0
H 86.58733686 -0.12189579 -30.32460885     6    107    0    0    0
C 87.71191261 -1.80920969 -33.80708499     2    107   111   112   113
H 86.28052466 -0.69200301 -34.92473105     6    110    0    0    0
H 89.35947218 -1.73414270 -35.20508127     6    110    0    0    0
C 87.11046418 -4.71828731 -33.62336431     2    110   114   115   116
H 88.88683773 -5.70957776 -33.48067095     6    113    0    0    0
H 85.97524806 -5.13007088 -31.90702433     6    113    0    0    0
C 85.56314090 -5.50538867 -36.02005985     2    113   117   118   119
H 83.92145152 -4.30159497 -36.07665408     6    116    0    0    0
H 86.51284148 -5.03591605 -37.83799808     6    116    0    0    0
C 84.83890205 -8.33040716 -35.60202967     2    116   120   121   122
H 86.52877406 -9.39783104 -35.19688729     6    119    0    0    0
H 83.70625369 -8.51329386 -33.92243856     6    119    0    0    0
C 83.51146584 -9.47656223 -37.90520459     1    119   123   124   125
H 82.79422963 -11.28684041 -37.71653601     6    122    0    0    0
H 84.76990405 -9.21606472 -39.54229659     6    122    0    0    0
H 82.00063311 -8.22920623 -38.23656299     6    122    0    0    0
H 102.47541199 25.69016733 -29.45089942     6     127    0    0    0
C 102.77537976 25.66296813 -31.44018190     1     126    128    129    130
H 104.56991838 26.56138182 -31.83292604     6     127    0    0    0
H 103.08121545 23.62173508 -31.97153463     6     127    0    0    0
C 100.63898498 27.22383049 -32.62826967     2     127    131    132    133
H 98.93591624 26.42076776 -32.14253245     6     130    0    0    0
H 100.84438766 29.07908514 -31.67531605     6     130    0    0    0
C 100.76255616 27.52944269 -35.49757338     2     130    134   135   136
H 102.79063699 27.83719550 -35.89309411     6     133    0    0    0
H 100.29748198 25.55525399 -36.20062952     6     133    0    0    0
C 99.20390368 29.62023703 -36.56317794     2     133   137   138   139
H 97.40630534 29.17558219 -35.68332284     6    136    0    0    0
H 99.84929231 31.35091650 -35.74272774     6    136    0    0    0
C 99.07034657 29.82386864 -39.54445773     2    136   140   141   142
H 100.87512337 30.55836095 -40.21362344     6    139    0    0    0
H 98.53763413 28.14980691 -40.42450233     6    139    0    0    0
C 96.95909339 31.99039232 -40.22914867     2    139   143   144   145
H 95.17323984 31.51865440 -39.13840336     6    142    0    0    0
H 97.64226906 33.86215601 -39.41142618     6    142    0    0    0
C 96.27863916 31.99340289 -43.10318791     2    142   146   147   148
H 98.08781730 32.17161154 -44.09220366     6    145    0    0    0
H 95.57042639 30.06669939 -43.72394261     6    145    0    0    0
C 94.21848600 33.97305390 -43.70519663     2    145   149   150   151
H 92.51832902 33.06620512 -43.13323949     6    148    0    0    0
H 94.53109905 35.67964213 -42.57808971     6    148    0    0    0
C 93.81092445 34.31645732 -46.58581478     2    148   152   153   154
H 95.40624387 35.08009212 -47.51898177     6    151    0    0    0
H 93.47563391 32.40845206 -47.36841392     6    151    0    0    0
C 91.46935605 35.97145612 -47.13320244     2    151   155   156   157
H 90.57109744 35.43618646 -48.93014522     6    154    0    0    0
H 90.06226592 35.56107136 -45.63503480     6    154    0    0    0
C 91.77929685 38.86091779 -46.69925841     2    154   158   159   160
H 92.67975880 39.06628163 -44.84629039     6    157    0    0    0
H 93.13651628 39.42763730 -48.19306241     6    157    0    0    0
C 89.35261798 40.23446356 -47.11727250     1    157   161   162   163
H 89.20466720 41.91921916 -46.10112640     6    160    0    0    0
H 87.67738348 39.15406241 -46.32818109     6    160    0    0    0
H 89.07844836 40.76027916 -49.01975128     6    160    0    0    0
H 101.39175538 2.07388828 -48.45121622     6     165    0    0    0
C 101.16198333 3.64062969 -47.03715614     1     164    166    167    168
H 99.21093737 3.67975735 -46.40326115     6     165    0    0    0
H 102.22317108 3.23321406 -45.35476506     6     165    0    0    0
C 102.20616165 6.11438977 -48.05491895     2     165    169    170    171
H 104.16614233 5.87116890 -48.40450603     6     168    0    0    0
H 101.06976952 6.54051687 -49.79565964     6     168    0    0    0
C 101.79489061 8.17400626 -46.15693728     2     168    172   173   174
H 99.84811342 8.46381559 -45.51122951     6     171    0    0    0
H 103.05693290 7.97268384 -44.52236235     6     171    0    0    0
C 102.46408138 10.53946305 -47.50687179     2     171   175   176   177
H 104.40654326 10.22559574 -48.28548705     6    174    0    0    0
H 101.31541671 10.72566448 -49.21234277     6    174    0    0    0
C 102.71122933 12.74336443 -45.63359015     2    174   178   179   180
H 101.14002951 12.89957191 -44.49030247     6    177    0    0    0
H 104.37905923 12.41371677 -44.47030310     6    177    0    0    0
C 103.26146096 15.03800288 -47.08439185     2    177   181   182   183
H 104.99698912 14.74435179 -48.03906185     6    180    0    0    0
H 101.97020503 15.24255598 -48.66706818     6    180    0    0    0
C 103.42765180 17.56469429 -45.58101321     2    180   184   185   186
H 101.44944697 18.05085263 -45.42000330     6    183    0    0    0
H 104.02815860 17.52723160 -43.62270340     6    183    0    0    0
C 105.07539912 19.60229251 -46.91857077     2    183   187   188   189
H 107.08610263 19.01372366 -46.87653774     6    186    0    0    0
H 104.58175325 19.77679117 -48.87969934     6    186    0    0    0
C 104.86648825 22.11741399 -45.43258593     2    186   190   191   192
H 102.92775967 22.79984084 -45.38814480     6    189    0    0    0
H 105.31107233 21.86885917 -43.48320194     6    189    0    0    0
C 106.58328374 24.18268439 -46.55945955     2    189   193   194   195
H 108.52025172 23.60951821 -46.79755139     6    192    0    0    0
H 105.78224229 24.75452066 -48.36754985     6    192    0    0    0
C 106.81854396 26.65141610 -44.89839306     2    192   196   197   198
H 104.90634125 27.41683789 -44.44239231     6    195    0    0    0
H 107.60951405 25.98622328 -43.05054824     6    195    0    0    0
C 108.50682359 28.74219407 -46.09395420     1    195   199   200   201
H 109.04405653 29.90056857 -44.52990002     6    198    0    0    0
H 107.48763420 30.01810277 -47.45593518     6    198    0    0    0
H 110.14609877 28.14020615 -47.05983485     6    198    0    0    0
H 96.52467790 13.76347509 -58.60726456     6     203    0    0    0
C 97.11664221 13.89269069 -60.64977495     1     202    204    205    206
H 97.08455803 15.85892004 -61.36308509     6     203    0    0    0
H 99.04774995 13.15863798 -60.70563711     6     203    0    0    0
C 95.58811813 11.98922291 -62.32786324     2     203    207    208    209
H 96.37213384 11.62970424 -64.14888316     6     206    0    0    0
H 95.42765826 10.35341039 -61.15809783     6     206    0    0    0
C 92.98145055 13.12587904 -62.66401706     2     206    210   211   212
H 92.19098680 11.66302941 -63.79804691     6     209    0    0    0
H 91.79120750 13.13340489 -60.93063722     6     209    0    0    0
C 92.92786088 15.62415583 -64.11091945     2     209   213   214   215
H 93.41826660 17.27160012 -62.99207832     6    212    0    0    0
H 94.58557416 15.60931399 -65.36516373     6    212    0    0    0
C 90.43155529 16.05828771 -65.50236887     2    212   216   217   218
H 89.94074385 14.25914423 -66.46241584     6    215    0    0    0
H 88.85094033 16.57640919 -64.42607363     6    215    0    0    0
C 90.43230130 18.28261252 -67.42391546     2    215   219   220   221
H 89.79505976 19.76394220 -66.27088495     6    218    0    0    0
H 92.39017690 18.60229844 -67.91421628     6    218    0    0    0
C 88.70400409 17.76265157 -69.72108288     2    218   222   223   224
H 89.16949866 16.06146661 -70.86043418     6    221    0    0    0
H 86.90115235 17.45432380 -68.82923895     6    221    0    0    0
C 88.50122406 20.02107401 -71.36677601     2    221   225   226   227
H 88.31012437 21.73961051 -70.25193619     6    224    0    0    0
H 90.35313565 20.07472544 -72.33094047     6    224    0    0    0
C 86.33447814 19.82063195 -73.33638149     2    224   228   229   230
H 86.83822198 18.31026858 -74.73096556     6    227    0    0    0
H 84.45787494 19.23917648 -72.61428915     6    227    0    0    0
C 86.03717733 22.23203605 -74.85979734     2    227   231   232   233
H 85.14779034 23.71586399 -73.81275859     6    230    0    0    0
H 87.89676482 23.03782355 -75.42506309     6    230    0    0    0
C 84.63801516 21.89432940 -77.26581931     2    230   234   235   236
H 85.63989337 20.70332975 -78.54235574     6    233    0    0    0
H 83.16862727 20.53779257 -76.97581694     6    233    0    0    0
C 83.46498994 24.32419597 -78.20249516     1    233   237   238   239
H 83.27308802 24.23292203 -80.24430653     6    236    0    0    0
H 84.86487304 25.83663905 -77.89315860     6    236    0    0    0
H 81.75778177 24.81979534 -77.17396595     6    236    0    0    0
H 65.55229407 0.49026996 -49.83975911     6     241    0    0    0
C 67.23979331 1.37607776 -50.76636064     1     240    242    243    244
H 67.19419916 0.47441550 -52.63969979     6     241    0    0    0
H 67.20620300 3.49149779 -50.84180808     6     241    0    0    0
C 69.61305501 0.72858677 -49.13842051     2     241    245    246    247
H 69.78099560 -1.18397697 -48.58551646     6     244    0    0    0
H 71.42345502 0.87841694 -50.27910016     6     244    0    0    0
C 69.87767980 2.23678491 -46.75931614     2     244    248   249   250
H 71.85539083 2.38769419 -46.36781119     6     247    0    0    0
H 69.26641063 4.13164851 -47.06074990     6     247    0    0    0
C 68.35363044 1.23224968 -44.50600311     2     247   251   252   253
H 68.50068261 2.71644266 -43.06689513     6    250    0    0    0
H 66.49141850 0.72481755 -44.99256234     6    250    0    0    0
C 69.66273246 -1.23254371 -43.49943963     2    250   254   255   256
H 69.60974034 -2.70350158 -44.84855565     6    253    0    0    0
H 71.74110968 -0.87857073 -42.93233290     6    253    0    0    0
C 68.68534429 -2.16621054 -41.01067668     2    253   257   258   259
H 69.94118357 -3.63494904 -40.35209594     6    256    0    0    0
H 68.69914121 -0.73074796 -39.53670519     6    256    0    0    0
C 65.94978467 -3.04484126 -41.24009039     2    256   260   261   262
H 64.63410357 -1.43109045 -41.47893238     6    259    0    0    0
H 65.98014256 -4.23833381 -42.91157758     6    259    0    0    0
C 65.01308825 -4.38772996 -38.81650905     2    259   263   264   265
H 66.04844724 -6.01443201 -38.56833874     6    262    0    0    0
H 65.39374148 -3.42293452 -37.17226474     6    262    0    0    0
C 62.24421018 -5.03779128 -39.03323412     2    262   266   267   268
H 61.41138864 -4.99593163 -37.02556590     6    265    0    0    0
H 61.43007473 -3.56792245 -40.16441946     6    265    0    0    0
C 61.99204622 -7.58310877 -40.34680485     2    265   269   270   271
H 63.15894851 -7.76929351 -42.02883657     6    268    0    0    0
H 62.74776384 -8.94584980 -39.07979671     6    268    0    0    0
C 59.05941566 -7.86194889 -41.07955253     2    268   272   273   274
H 57.95170267 -7.57550961 -39.35478325     6    271    0    0    0
H 58.34277843 -6.22319850 -42.00017273     6    271    0    0    0
C 58.47829051 -10.24430678 -42.61964304     1    271   275   276   277
H 59.62716122 -10.36659880 -44.24177454     6    274    0    0    0
H 56.78140714 -9.92908705 -43.83468555     6    274    0    0    0
H 58.52337859 -12.01511949 -41.53929595     6    274    0    0    0
H 85.58958577 -1.37465083 -50.46935650     6     279    0    0    0
C 85.12835541 0.32563886 -51.57861451     1     278    280    281    282
H 83.42049381 1.36058245 -50.87665901     6     279    0    0    0
H 86.67231644 1.64092084 -51.36053702     6     279    0    0    0
C 84.73240283 -0.37354170 -54.40085173     2     279    283    284    285
H 86.37891023 -1.28656146 -55.14885959     6     282    0    0    0
H 83.04796001 -1.56133869 -54.53541731     6     282    0    0    0
C 84.12661962 2.01576724 -55.91542427     2     282    286   287   288
H 82.91845524 3.02393399 -54.49570541     6     285    0    0    0
H 85.83065007 3.19364641 -56.28171294     6     285    0    0    0
C 82.73603321 1.40616979 -58.35730381     2     285   289   290   291
H 83.89968337 0.29041693 -59.73791355     6    288    0    0    0
H 81.15774807 0.06883768 -57.70464341     6    288    0    0    0
C 81.64340594 3.91186998 -59.55664504     2    288   292   293   294
H 80.24001258 4.49626747 -58.23844120     6    291    0    0    0
H 82.87478141 5.60255772 -59.62237197     6    291    0    0    0
C 80.23760473 3.52655496 -62.03953550     2    291   295   296   297
H 81.65262883 2.76730609 -63.38193325     6    294    0    0    0
H 78.95619071 2.08457672 -61.72538801     6    294    0    0    0
C 78.78179718 5.81520274 -62.90943051     2    294   298   299   300

   18   -1830.5223019791      5.67E-09 Convergence criterion met
 Total energy in the final basis set = -1828.26137880
 Total job time:  17.08s(wall), 30.67s(cpu)
        *  Thank you very much for using Q-Chem.  Have a nice day.  *

User input: 2 of 2

                  Welcome to Q-Chem
     A Quantum Leap Into The Future Of Chemistry

 Q-Chem 5.4 (devel), Q-Chem, Inc., Pleasanton, CA (2021)

 E. Epifanovsky,  A. T. B. Gilbert,  Xintian Feng,  Joonho Lee,  Yuezhi Mao,
 N. Mardirossian,  P. Pokhilko,  A. White,  M. Wormit,  M. P. Coons,
 A. L. Dempwolff,  Zhengting Gan,  D. Hait,  P. R. Horn,  L. D. Jacobson,
 I. Kaliman,  J. Kussmann,  A. W. Lange,  Ka Un Lao,  D. S. Levine,  Jie Liu,
 S. C. McKenzie,  A. F. Morrison,  K. Nanda,  F. Plasser,  D. R. Rehn,
 M. L. Vidal,  Zhi-Qiang You,  Ying Zhu,  B. Alam,  B. Albrecht,
 A. Aldossary,  E. Alguire,  J. H. Andersen,  D. Barton,  K. Begam,  A. Behn,
 Y. A. Bernard,  E. J. Berquist,  H. Burton,  A. Carreras,  K. Carter-Fenk,
 R. Chakraborty,  A. D. Chien,  K. D. Closser,  V. Cofer-Shabica,
 S. Dasgupta,  Jia Deng,  M. de Wergifosse,  M. Diedenhofen,  Hainam Do,
 S. Ehlert,  Po-Tung Fang,  S. Fatehi,  Qingguo Feng,  T. Friedhoff,
 J. Gayvert,  Qinghui Ge,  G. Gidofalvi,  M. Goldey,  J. Gomes,
 C. Gonzalez-Espinoza,  S. Gulania,  A. Gunina,  M. W. D. Hanson-Heine,
 P. H. P. Harbach,  A. W. Hauser,  M. F. Herbst,  M. Hernandez Vera,
 M. Hodecker,  Z. C. Holden,  S. Houck,  Xunkun Huang,  Kerwin Hui,
 B. C. Huynh,  M. Ivanov,  Hyunjun Ji,  Hanjie Jiang,  B. Kaduk,  S. Kaehler,
 K. Khistyaev,  Jaehoon Kim,  P. Klunzinger,  Z. Koczor-Benda,
 Joong Hoon Koh,  D. Kosenkov,  L. Koulias,  T. Kowalczyk,  C. M. Krauter,
 K. Kue,  A. Kunitsa,  T. Kus,  A. Landau,  K. V. Lawler,  D. Lefrancois,
 S. Lehtola,  Rain Li,  Yi-Pei Li,  Jiashu Liang,  M. Liebenthal,
 Hung-Hsuan Lin,  You-Sheng Lin,  Fenglai Liu,  Kuan-Yu Liu,
 M. Loipersberger,  A. Luenser,  A. Manjanath,  P. Manohar,  E. Mansoor,
 S. F. Manzer,  Shan-Ping Mao,  A. V. Marenich,  T. Markovich,  S. Mason,
 S. A. Maurer,  P. F. McLaughlin,  M. F. S. J. Menger,  J.-M. Mewes,
 S. A. Mewes,  P. Morgante,  J. W. Mullinax,  K. J. Oosterbaan,  G. Paran,
 Alexander C. Paul,  Suranjan K. Paul,  F. Pavosevic,  Zheng Pei,  S. Prager,
 E. I. Proynov,  E. Ramos,  B. Rana,  A. E. Rask,  A. Rettig,  R. M. Richard,
 F. Rob,  E. Rossomme,  T. Scheele,  M. Scheurer,  M. Schneider,
 N. Sergueev,  S. M. Sharada,  W. Skomorowski,  D. W. Small,  C. J. Stein,
 Yu-Chuan Su,  E. J. Sundstrom,  Zhen Tao,  J. Thirman,  T. Tsuchimochi,
 N. M. Tubman,  S. P. Veccham,  O. Vydrov,  J. Wenzel,  J. Witte,  A. Yamada,
 Kun Yao,  S. Yeganeh,  S. R. Yost,  A. Zech,  Igor Ying Zhang,  Xing Zhang,
 Yu Zhang,  D. Zuev,  A. Aspuru-Guzik,  A. T. Bell,  N. A. Besley,
 K. B. Bravaya,  B. R. Brooks,  D. Casanova,  Jeng-Da Chai,  S. Coriani,
 C. J. Cramer,  A. E. DePrince, III,  R. A. DiStasio Jr.,  A. Dreuw,
 B. D. Dunietz,  T. R. Furlani,  W. A. Goddard III,  S. Grimme,
 S. Hammes-Schiffer,  T. Head-Gordon,  W. J. Hehre,  Chao-Ping Hsu,
 T.-C. Jagau,  Yousung Jung,  A. Klamt,  Jing Kong,  D. S. Lambrecht,
 WanZhen Liang,  N. J. Mayhall,  C. W. McCurdy,  J. B. Neaton,
 C. Ochsenfeld,  J. A. Parkhill,  R. Peverati,  V. A. Rassolov,  Yihan Shao,
 L. V. Slipchenko,  T. Stauch,  R. P. Steele,  J. E. Subotnik,
 A. J. W. Thom,  A. Tkatchenko,  D. G. Truhlar,  T. Van Voorhis,
 T. A. Wesolowski,  K. B. Whaley,  H. L. Woodcock III,  P. M. Zimmerman,
 S. Faraji,  P. M. W. Gill,  M. Head-Gordon,  J. M. Herbert,  A. I. Krylov

 Additional authors for Version 5.4.1:
 S. Kotaru,  Shaozhi Li,  Xiangyuan Li,  F. Matz,  A. Molle,  Haisheng Ren,
 Yingli Su,  Hung-Yi Tsai,  C. Utku,  Fang Wang

 Contributors to earlier versions of Q-Chem not listed above:
 R. D. Adamson,  B. Austin,  R. Baer,  J. Baker,  G. J. O. Beran,
 K. Brandhorst,  S. T. Brown,  E. F. C. Byrd,  A. K. Chakraborty,
 G. K. L. Chan,  Chun-Min Chang,  Yunqing Chen,  C.-L. Cheng,
 Siu Hung Chien,  D. M. Chipman,  D. L. Crittenden,  H. Dachsel,
 R. J. Doerksen,  A. D. Dutoi,  R. G. Edgar,  J. Fosso-Tande,
 L. Fusti-Molnar,  D. Ghosh,  A. Ghysels,  A. Golubeva-Zadorozhnaya,
 J. Gonthier,  M. S. Gordon,  S. R. Gwaltney,  G. Hawkins,  J. E. Herr,
 A. Heyden,  S. Hirata,  E. G. Hohenstein,  G. Kedziora,  F. J. Keil,
 C. Kelley,  Jihan Kim,  R. A. King,  R. Z. Khaliullin,  P. P. Korambath,
 W. Kurlancheek,  A. Laurent,  A. M. Lee,  M. S. Lee,  S. V. Levchenko,
 Ching Yeh Lin,  D. Liotard,  E. Livshits,  R. C. Lochan,  I. Lotan,
 L. A. Martinez-Martinez,  P. E. Maslen,  N. Nair,  D. P. O'Neill,
 D. Neuhauser,  E. Neuscamman,  C. M. Oana,  R. Olivares-Amaya,  R. Olson,
 T. M. Perrine,  B. Peters,  P. A. Pieniazek,  A. Prociuk,  Y. M. Rhee,
 J. Ritchie,  M. A. Rohrdanz,  E. Rosta,  N. J. Russ,  H. F. Schaefer III,
 M. W. Schmidt,  N. E. Schultz,  S. Sharma,  N. Shenvi,  C. D. Sherrill,
 A. C. Simmonett,  A. Sodt,  T. Stein,  D. Stuck,  K. S. Thanthiriwatte,
 V. Vanovschi,  L. Vogt,  Tao Wang,  A. Warshel,  M. A. Watson,
 C. F. Williams,  Q. Wu,  X. Xu,  Jun Yang,  W. Zhang,  Yan Zhao

 Please cite Q-Chem as follows:
 Y. Shao et al., Mol. Phys. 113, 184-215 (2015)
 DOI: 10.1080/00268976.2014.952696

 Q-Chem 5.4.1 for Intel X86 EM64T Linux

 Parts of Q-Chem use Armadillo 9.900.5 (Nocturnal Misbehaviour).
 http://arma.sourceforge.net/

 Q-Chem begins on Fri Jul  1 20:00:20 2022

 Host: p09r14n09.grace.hpc.yale.internal
0

     Scratch files written to /home/tl686/scratch60/qchem_dev/scratch/qchem8969//
 Processing $rem in /home/tl686/qchem_dev/qchem/config/preferences:
 Processing $rem in /home/tl686/.qchemrc:
Applying user defined connections for MM calculations
The previous job contains 0 fragments, simply inherited here

 Checking the input file for inconsistencies... 	...done.

--------------------------------------------------------------
User input:
--------------------------------------------------------------

$molecule
READ
$end

$qm_atoms
1:11
$end

$force_field_params
NumAtomTypes 3
AtomType -1   0.0238     3.11   0.2868
AtomType -2   0.07124    3.30   0.6597
AtomType -3  -0.0760     3.09   0.1434
$end

$rem
     JOBTYPE  freq
     METHOD   bp86
     BASIS    def2-msvp
     MAX_SCF_CYCLES   800
     INPUT_BOHR TRUE
     SYM_IGNORE TRUE
     SCF_GUESS     read
     user_connect            true
     qm_mm_interface         ONIOM
     force_field             oplsaa
$end

--------------------------------------------------------------

    3   -1830.5223019800      5.17E-09 Convergence criterion met
 Total energy in the final basis set = -1828.26137880

                    Orbital Energies (a.u.)
 --------------------------------------------------------------

 Alpha MOs
 -- Occupied --
******** -29.6299 -25.5900 -25.5793 -25.5713 -18.8948 -18.8789 -18.8783
-18.8766 -18.8752 -10.0589 -10.0446 -10.0432 -10.0428 -10.0400  -3.3126
 -2.1486  -2.1278  -2.1105  -1.0736  -1.0596  -1.0500  -1.0493  -1.0475
 -0.5672  -0.5251  -0.5181  -0.5147  -0.5112  -0.4558  -0.4471  -0.4405
 -0.4349  -0.4302  -0.4254  -0.4216  -0.4208  -0.4149  -0.4106  -0.4095
 -0.4076  -0.3989  -0.3901  -0.3803  -0.2736  -0.2602  -0.2313  -0.2109

          Ground-State Mulliken Net Atomic Charges

     Atom                 Charge (a.u.)
  ----------------------------------------
      1 Fe                   -0.482344
      2 C                     0.190320
      3 C                     0.217412
      4 C                     0.206816
      5 C                     0.232972
      6 C                     0.168588
      7 O                    -0.100011
      8 O                    -0.115607
      9 O                    -0.087222
     10 O                    -0.108920
     11 O                    -0.122003
  ----------------------------------------
  Sum of atomic charges =     0.000000

                    Cartesian Multipole Moments
 -----------------------------------------------------------------
    Charge (ESU x 10^10)
                -0.0000
    Dipole Moment (Debye)
         X       0.4632158974      Y       0.0594005104      Z       0.2700280586
       Tot       0.5394557819
    Quadrupole Moments (Debye-Ang)
        XX     -32.5408     XY      11.1260     YY     -67.5437
        XZ       0.0488     YZ       3.7919     ZZ     -81.9901
