 Q-Chem 5.4 (devel), Q-Chem, Inc., Pleasanton, CA (2021)
 Q-Chem 5.4.1 for Intel X86 EM64T Linux

User input:
--------------------------------------------------------------
$molecule
0   1
 Fe 109.63736222 -5.80120317 38.56191522    -1  0   0   0   0
C 110.57291605 -8.07797810 40.90867614    -2  0   0   0   0
C 107.04820608 -6.62297434 36.62240306    -2  0   0   0   0
C 111.72854914 -2.95323263 38.49410885    -2  0   0   0   0
C 111.62087192 -7.05445163 36.11866101    -2  0   0   0   0
C 107.36412167 -4.25155806 40.65794906    -2  0   0   0   0
O 111.07511581 -9.49423745 42.57805412    -3  0   0   0   0
O 105.33681717 -7.34467778 35.29405310    -3  0   0   0   0
O 112.84579414 -1.07123277 38.47721756    -3  0   0   0   0
O 112.93177511 -7.93136821 34.57004866    -3  0   0   0   0
O 105.75280908 -3.33628858 41.80634188    -3  0   0   0   0
H 137.33201592 -4.59790384 47.80016952      6     13    0    0    0
C 137.34533417 -5.88509489 49.39618977     1     12    14    15    16
H 139.32522704 -6.15011817 50.15083863     6     13    0    0    0
H 136.12561053 -5.44758765 50.90839798     6     13    0    0    0
C 136.59217474 -8.50553504 48.41610585     2     13    17    18    19
H 138.30210927 -9.45852474 47.77035459     6     16    0    0    0
H 136.15668523 -9.66170790 50.01634628     6     16    0    0    0
C 134.27327611 -8.68850240 46.57064704     2     16    20   21   22
H 132.66638037 -7.81930768 47.46678736     6     19    0    0    0
H 134.80119723 -7.64792739 44.88671105     6     19    0    0    0
C 133.46193429 -11.34064771 45.85987873     2     19   23   24   25
H 134.99851188 -12.41732656 44.97305201     6    22    0    0    0
H 132.61060961 -12.35953991 47.41240910     6    22    0    0    0
C 131.40693474 -11.15144816 43.69852781     2    22   26   27   28
H 130.00823885 -9.74846335 44.20668597     6    25    0    0    0
H 132.51925899 -10.22654928 42.07472239     6    25    0    0    0
C 130.31439554 -13.75607187 42.98637112     2    25   29   30   31
H 131.87798558 -15.15042811 43.21854342     6    28    0    0    0
H 128.91100122 -14.43389295 44.32469545     6    28    0    0    0
C 129.44636304 -13.86299191 40.12362998     2    28   32   33   34
H 127.94701454 -12.40527023 40.12561288     6    31    0    0    0
H 130.92986397 -13.29449589 38.74564112     6    31    0    0    0
C 128.39727258 -16.52031392 39.32130013     2    31   35   36   37
H 130.14789225 -17.54112666 39.67422176     6    34    0    0    0
H 126.88303705 -17.15092149 40.43999778     6    34    0    0    0
C 127.74259144 -16.51504324 36.52104660     2    34   38   39   40
H 126.38966769 -15.06808467 36.24607343     6    37    0    0    0
H 129.52169730 -15.65236195 35.61049123     6    37    0    0    0
C 127.26719456 -19.20008284 35.43970309     2    37   41   42   43
H 128.92554226 -20.28286986 35.78735322     6    40    0    0    0
H 125.54973143 -20.01313577 36.23510167     6    40    0    0    0
C 126.90229406 -19.25566009 32.44981940     2    40   44   45   46
H 125.30266333 -18.19236371 31.81470948     6    43    0    0    0
H 128.57510276 -18.49884422 31.51034359     6    43    0    0    0
C 126.74993260 -21.97458620 31.59707158     1    43   47   48   49
H 128.35095351 -23.12789861 32.41241287     6    46    0    0    0
H 127.24016952 -22.02644884 29.60812777     6    46    0    0    0
H 124.89204795 -22.97499292 32.10654623     6    46    0    0    0
H 116.06370698 -16.67010461 37.63353038     6     51    0    0    0
C 114.49877573 -15.77062193 36.59193850     1     50    52    53    54
H 113.10909141 -17.05709952 36.02118345     6     51    0    0    0
H 113.63913048 -14.24371628 37.85504625     6     51    0    0    0
C 115.41887831 -14.36245840 34.19802203     2     51    55    56    57
H 113.90665355 -13.04347386 33.77993311     6     54    0    0    0
H 117.17405825 -13.35272259 34.57691032     6     54    0    0    0
C 115.85759664 -15.93323781 31.78689828     2     54    58   59   60
H 114.19411261 -16.80197144 31.25948805     6     57    0    0    0
H 116.19481781 -14.77916081 30.21960760     6     57    0    0    0
C 117.85286324 -18.10844991 32.21610627     2     57   61   62   63
H 119.47252858 -17.37958166 33.36261526     6    60    0    0    0
H 117.01727111 -19.48400837 33.41439481     6    60    0    0    0
C 118.97474666 -19.18013216 29.79953337     2    60   64   65   66
H 117.57835835 -18.95181512 28.30734454     6    63    0    0    0
H 120.53232246 -17.86707921 29.41289269     6    63    0    0    0
C 120.07816679 -21.73851353 30.41896950     2    63   67   68   69
H 121.66308728 -22.01899306 29.20116141     6    66    0    0    0
H 120.92534272 -21.93053790 32.25033733     6    66    0    0    0
C 118.25411943 -24.15132646 29.80333653     2    66   70   71   72
H 116.43652332 -23.89161955 30.60354891     6    69    0    0    0
H 117.96962570 -24.24185814 27.67447294     6    69    0    0    0
C 119.18893160 -26.70660448 30.95849763     2    69   73   74   75
H 121.04386141 -27.37158664 30.26613688     6    72    0    0    0
H 119.22378893 -26.57285585 32.97592299     6    72    0    0    0
C 117.23291194 -28.75466516 30.28833132     2    72   76   77   78
H 115.28280238 -28.10230971 30.79762340     6    75    0    0    0
H 117.30569203 -29.14405243 28.24115561     6    75    0    0    0
C 117.64302162 -31.18088756 31.83905978     2    75   79   80   81
H 119.49573976 -31.83667071 31.72541078     6    78    0    0    0
H 117.19168978 -30.89713343 33.79031836     6    78    0    0    0
C 116.03456677 -33.33947384 30.82947347     2    78   82   83   84
H 113.94471697 -33.19114794 30.99627577     6    81    0    0    0
H 116.50473229 -33.78167868 28.98292284     6    81    0    0    0
C 116.71448250 -35.74019223 32.37882165     1    81   85   86   87
H 115.24477002 -37.15859634 31.91171802     6    84    0    0    0
H 116.86798721 -35.41626596 34.42290041     6    84    0    0    0
H 118.48324708 -36.56141581 31.87563092     6    84    0    0    0
H 143.01825093 1.32470366 27.96412906     6     89    0    0    0
C 141.80181567 -0.36165281 28.03908548     1     88    90    91    92
H 140.93775118 -0.36076498 29.91168168     6     89    0    0    0
H 140.43585001 -0.61628864 26.52120233     6     89    0    0    0
C 143.46171817 -2.83615561 27.90122829     2     89    93    94    95
H 144.15138528 -3.22617446 25.98338222     6     92    0    0    0
H 145.17786801 -2.53578924 29.10485697     6     92    0    0    0
C 142.12420435 -5.18806685 28.84396219     2     92    96   97   98
H 141.78769015 -4.91388874 30.87281668     6     95    0    0    0
H 140.19281881 -5.28752567 27.95206127     6     95    0    0    0
C 143.74268866 -7.58169929 28.46759489     2     95   99   100   101
H 144.48485802 -7.55017096 26.57476950     6    98    0    0    0
H 145.31749755 -7.79628747 29.88635727     6    98    0    0    0
C 142.24497812 -10.06215656 28.70559790     2    98   102   103   104
H 141.14523004 -10.09079026 30.43868635     6    101    0    0    0
H 140.72424099 -9.74600668 27.33250592     6    101    0    0    0
C 143.51459445 -12.60328647 28.24774481     2    101   105   106   107
H 144.02692989 -12.54806145 26.28808427     6    104    0    0    0
H 145.32939005 -12.67635966 29.18819200     6    104    0    0    0
C 141.92263545 -14.89941374 28.70178860     2    104   108   109   110
H 141.21734520 -14.91479940 30.58842907     6    107    0    0    0
H 140.06935992 -14.51482482 27.81440579     6    107    0    0    0
C 143.26605244 -17.23999861 27.67048579     2    107   111   112   113
H 143.72624916 -17.28834279 25.66441416     6    110    0    0    0
H 144.94973461 -17.17759903 28.97162411     6    110    0    0    0
C 141.75938666 -19.58433303 28.47898351     2    110   114   115   116
H 141.17195568 -19.32368077 30.50263963     6    113    0    0    0
H 140.00107305 -19.52503501 27.47960595     6    113    0    0    0
C 143.22381552 -22.06860055 28.00110140     2    113   117   118   119
H 143.47319670 -22.02961033 25.89135782     6    116    0    0    0
H 144.99981035 -22.00898854 28.90660826     6    116    0    0    0
C 141.50659743 -24.23383043 28.86884435     2    116   120   121   122
H 142.61242185 -25.80418413 29.57323880     6    119    0    0    0
H 140.38830873 -23.40228761 30.30862037     6    119    0    0    0
C 139.52907518 -25.23484052 26.89132961     1    119   123   124   125
H 138.55653701 -26.77814171 27.67014974     6    122    0    0    0
H 140.52813838 -25.86464932 25.11146369     6    122    0    0    0
H 138.20965310 -23.71735412 26.26268869     6    122    0    0    0
H 131.96590026 19.22273147 17.79411394     6     127    0    0    0
C 130.57985653 17.78626393 18.31322991     1     126    128    129    130
H 129.44533049 17.49049525 16.57318518     6     127    0    0    0
H 131.86782431 16.17055133 18.64603011     6     127    0    0    0
C 128.97693221 18.26605918 20.67444673     2     127    131    132    133
H 130.22971275 19.20413289 22.06508190     6     130    0    0    0
H 127.65181952 19.70449168 20.21229249     6     130    0    0    0
C 127.66295948 15.85232478 21.74909725     2     130    134   135   136
H 126.28615880 15.19748685 20.38714448     6     133    0    0    0
H 129.13028215 14.46823966 21.83111122     6     133    0    0    0
C 126.30389284 16.43325673 24.43713050     2     133   137   138   139
H 127.58969956 17.30567050 25.78287697     6    136    0    0    0
H 124.95554094 17.75720064 24.58086000     6    136    0    0    0
C 125.54268359 13.85573245 25.57761205     2    136   140   141   142
H 123.86715295 12.99418655 24.72273682     6    139    0    0    0
H 127.11928897 12.54072688 25.46965572     6    139    0    0    0
C 124.81027721 14.26254146 28.44015797     2    139   143   144   145
H 126.63656127 14.53649764 29.37681778     6    142    0    0    0
H 123.72994824 15.80452174 28.66094353     6    142    0    0    0
C 123.48478674 11.91417650 29.55585210     2    142   146   147   148
H 121.89600125 11.07744289 28.35901079     6    145    0    0    0
H 125.02262130 10.63749204 29.90239359     6    145    0    0    0
C 122.70573537 12.64544245 32.24545863     2    145   149   150   151
H 124.18491035 13.51567202 33.20682041     6    148    0    0    0
H 121.04543070 13.97374353 32.03677645     6    148    0    0    0
C 121.91362040 10.19543452 33.68460077     2    148   152   153   154
H 120.46672099 9.41884276 32.62291770     6    151    0    0    0
H 123.45428937 8.83528407 33.76181621     6    151    0    0    0
C 121.12490571 10.80594152 36.40205885     2    151   155   156   157
H 121.51297846 9.15319141 37.60557272     6    154    0    0    0
H 122.14201162 12.49378288 37.00096543     6    154    0    0    0
C 118.19617271 11.29800439 36.75584924     2    154   158   159   160
H 117.61469000 13.06066916 35.60339546     6    157    0    0    0
H 117.24192162 9.49939613 36.21678728     6    157    0    0    0
C 117.67462081 11.95772964 39.58888511     1    157   161   162   163
H 117.11244062 10.33934610 40.89538007     6    160    0    0    0
H 116.13369057 13.21434651 39.48502731     6    160    0    0    0
H 119.33404827 12.70819062 40.28360558     6    160    0    0    0
H 126.40620391 -11.40794454 -1.07540792     6     165    0    0    0
C 127.93431453 -10.40034172 -0.19828371     1     164    166    167    168
H 129.05108857 -11.66424986 0.89046425     6     165    0    0    0
H 129.10429010 -9.97958342 -1.74419982     6     165    0    0    0
C 126.92101515 -8.19023772 1.43392769     2     165    169    170    171
H 125.47504466 -7.08867994 0.41920324     6     168    0    0    0
H 126.29084399 -8.87044289 3.23463641     6     168    0    0    0
C 128.92534369 -6.12043730 2.01410024     2     168    172   173   174
H 130.55204834 -7.08494711 2.86230983     6     171    0    0    0
H 129.45257404 -5.18397640 0.34895299     6     171    0    0    0
C 128.01768457 -4.31129679 4.11850782     2     171   175   176   177
H 126.26194504 -3.46269239 3.45746595     6    174    0    0    0
H 127.71015598 -5.24630799 5.98375982     6    174    0    0    0
C 129.97722957 -2.20101664 4.48983929     2    174   178   179   180
H 131.19583717 -2.89076732 5.99602681     6    177    0    0    0
H 131.13843132 -1.81225643 2.81956166     6    177    0    0    0
C 128.97138652 0.46462472 5.13575536     2    177   181   182   183
H 127.44702452 0.93375156 3.74844409     6    180    0    0    0
H 128.08820099 0.45533967 6.97155282     6    180    0    0    0
C 131.26465933 2.31704575 5.12715730     2    180   184   185   186
H 132.86383456 1.69128849 6.31865283     6    183    0    0    0
H 132.06579674 2.34084920 3.29868868     6    183    0    0    0
C 130.65019918 5.06632481 6.13481441     2    183   187   188   189
H 129.74392151 6.20587959 4.69764537     6    186    0    0    0
H 129.13305356 4.86000895 7.58092838     6    186    0    0    0
C 133.05052385 6.35816050 7.26357972     2    186   190   191   192
H 134.15623064 5.25824965 8.66675705     6    189    0    0    0
H 134.22021837 6.84579898 5.68305154     6    189    0    0    0
C 132.42966298 8.93376531 8.49635813     2    189   193   194   195
H 131.17503363 9.99325159 7.22740362     6    192    0    0    0
H 131.62496219 8.59499628 10.46146220     6    192    0    0    0
C 134.96290026 10.42515619 9.03782072     2    192   196   197   198
H 136.12655114 9.34588299 10.35971125     6    195    0    0    0
H 136.18640745 10.31335310 7.36814563     6    195    0    0    0
C 134.30684765 13.05597010 10.03467348     1    195   199   200   201
H 136.03587238 14.06857986 10.27034624     6    198    0    0    0
H 133.52037549 12.72992538 11.91540492     6    198    0    0    0
H 132.80034631 14.24381115 9.08057513     6    198    0    0    0
H 122.20215404 -9.15143121 12.44118157     6     203    0    0    0
C 121.64148174 -7.82615426 10.93362366     1     202    204    205    206
H 119.55295436 -7.65007068 10.87836012     6     203    0    0    0
H 122.41590583 -6.08757933 11.77030160     6     203    0    0    0
C 122.80306707 -8.47983975 8.40005283     2     203    207    208    209
H 122.59942449 -6.97101383 7.18903897     6     206    0    0    0
H 124.84692291 -8.58849359 8.45181752     6     206    0    0    0
C 121.73851495 -10.86948433 7.32215436     2     206    210   211   212
H 122.44854371 -10.98830280 5.34173970     6     209    0    0    0
H 122.45537059 -12.55998442 8.19652206     6     209    0    0    0
C 118.84976169 -11.01919327 6.71356032     2     209   213   214   215
H 117.75854213 -10.70344128 8.45209886     6    212    0    0    0
H 118.57318648 -9.44388435 5.59304717     6    212    0    0    0
C 117.66335969 -13.27438253 5.50311703     2    212   216   217   218
H 118.67218942 -13.25606705 3.67307729     6    215    0    0    0
H 118.15409242 -15.17654452 6.40705023     6    215    0    0    0
C 114.81170201 -13.04959185 5.20695225     2    215   219   220   221
H 113.77370191 -12.44178674 6.84369708     6    218    0    0    0
H 114.33109390 -11.73060463 3.68736196     6    218    0    0    0
C 113.74090606 -15.64962191 4.89519933     2    218   222   223   224
H 114.14727724 -16.50196438 3.05750310     6    221    0    0    0
H 114.44361206 -16.75089569 6.43648988     6    221    0    0    0
C 110.80538081 -15.57118269 5.24104589     2    221   225   226   227
H 110.20716539 -15.44999420 7.17629434     6    224    0    0    0
H 109.99292219 -13.89745817 4.32046324     6    224    0    0    0
C 109.71787817 -17.93880068 3.98906564     2    224   228   229   230
H 109.92915455 -17.77792145 1.99372799     6    227    0    0    0
H 110.82643303 -19.54023711 4.54888451     6    227    0    0    0
C 106.89242619 -18.19035239 4.57198985     2    227   231   232   233
H 106.52550509 -17.85375243 6.47712518     6    230    0    0    0
H 105.92340933 -16.57813517 3.67406898     6    230    0    0    0
C 105.86385610 -20.65473065 3.74519413     2    230   234   235   236
H 105.73144814 -21.01528485 1.83005606     6    233    0    0    0
H 107.02904718 -22.17739658 4.37319929     6    233    0    0    0
C 103.14396313 -20.85319629 4.86757653     1    233   237   238   239
H 101.85148268 -22.40978403 4.10580381     6    236    0    0    0
H 102.04869461 -19.12883585 4.35770416     6    236    0    0    0
H 103.16180970 -20.92298347 6.97645718     6    236    0    0    0
H 129.54103638 -35.45063500 25.91252414     6     241    0    0    0
C 130.84618125 -34.23171404 24.69931883     1     240    242    243    244
H 132.64019634 -35.09727949 24.15116313     6     241    0    0    0
H 129.72644569 -34.07317507 22.94603228     6     241    0    0    0
C 131.04208027 -31.69642964 26.02155679     2     241    245    246    247
H 132.02484037 -31.76203527 27.94860288     6     244    0    0    0
H 132.06801032 -30.52573549 24.83695294     6     244    0    0    0
C 128.50430212 -30.27733374 26.43989986     2     244    248   249   250
H 128.86490537 -28.27620324 26.99913195     6     247    0    0    0
H 127.59171208 -30.27401314 24.56545308     6     247    0    0    0
C 126.55028817 -31.58776496 28.34953347     2     247   251   252   253
H 124.61365237 -30.73529364 28.00788744     6    250    0    0    0
H 126.47666578 -33.57069494 27.98847894     6    250    0    0    0
C 127.37089503 -30.99243465 31.03448410     2    250   254   255   256
H 129.47216172 -31.43569144 31.38340077     6    253    0    0    0
H 127.29036464 -28.89466305 31.30747304     6    253    0    0    0
C 125.81298673 -32.47067796 33.09827732     2    253   257   258   259
H 126.09836525 -31.72956083 34.96040871     6    256    0    0    0
H 123.83363831 -31.98435101 32.74130615     6    256    0    0    0
C 126.14005668 -35.33750657 32.85909365     2    256   260   261   262
H 126.05388497 -35.93489388 30.80868688     6    259    0    0    0
H 128.05527888 -35.82777504 33.47372029     6    259    0    0    0
C 124.14667645 -36.86120018 34.40995989     2    259   263   264   265
H 124.49169195 -36.62998440 36.49840301     6    262    0    0    0
H 122.22298406 -36.14301759 34.36147102     6    262    0    0    0
C 123.98073537 -39.63573290 33.58286824     2    262   266   267   268
H 123.01782386 -40.72440559 35.07200164     6    265    0    0    0
H 122.73151700 -39.80799139 31.92240861     6    265    0    0    0
C 126.40868212 -40.97869111 32.92741016     2    265   269   270   271
H 127.35922374 -40.05651638 31.30775843     6    268    0    0    0
H 127.67297963 -41.30242614 34.54172939     6    268    0    0    0
C 125.71075479 -43.61830270 32.05335333     2    268   272   273   274
H 124.72607671 -44.56186257 33.62506816     6    271    0    0    0
H 124.42730043 -43.60148219 30.42168193     6    271    0    0    0
C 128.14870692 -45.11410237 31.20892665     1    271   275   276   277
H 128.95682157 -43.89968404 29.81543178     6    274    0    0    0
H 127.88118047 -46.97911544 30.50883068     6    274    0    0    0
H 129.62540973 -45.14347406 32.66371516     6    274    0    0    0
H 133.11686907 -9.05065372 19.29799234     6     279    0    0    0
C 133.01050441 -8.77409511 17.23364512     1     278    280    281    282
H 133.28341417 -6.73506648 16.93630633     6     279    0    0    0
H 134.79132252 -9.61503706 16.46926008     6     279    0    0    0
C 130.58280255 -9.68044142 15.88750459     2     279    283    284    285
H 128.88938918 -9.00355811 16.73500003     6     282    0    0    0
H 130.68346087 -9.02386780 13.89652864     6     282    0    0    0
C 130.65497064 -12.62140001 15.67181007     2     282    286   287   288
H 132.00885377 -12.88547270 14.26720406     6     285    0    0    0
H 131.22629131 -13.57318242 17.38706706     6     285    0    0    0
C 128.15082560 -13.66241168 14.85893104     2     285   289   290   291
H 126.55139463 -13.02554420 15.98957616     6    288    0    0    0
H 127.74076314 -13.12299360 12.85522297     6    288    0    0    0
C 128.15726392 -16.60006065 14.97417796     2    288   292   293   294
H 129.86336264 -17.37218036 14.08862206     6    291    0    0    0
H 128.44180518 -17.15838950 17.03423659     6    291    0    0    0
C 125.89872435 -17.90318480 13.75161336     2    291   295   296   297
H 124.27105892 -17.00662054 14.58541282     6    294    0    0    0
H 125.90492510 -17.70741475 11.77074590     6    294    0    0    0
C 125.69378209 -20.70878957 14.35946383     2    294   298   299   300

   17   -1830.5221530802      1.31E-09 Convergence criterion met
 Total energy in the final basis set = -1828.32140103
 Total job time:  16.83s(wall), 29.49s(cpu)
        *  Thank you very much for using Q-Chem.  Have a nice day.  *

User input: 2 of 2

                  Welcome to Q-Chem
     A Quantum Leap Into The Future Of Chemistry

 Q-Chem 5.4 (devel), Q-Chem, Inc., Pleasanton, CA (2021)

 E. Epifanovsky,  A. T. B. Gilbert,  Xintian Feng,  Joonho Lee,  Yuezhi Mao,
 N. Mardirossian,  P. Pokhilko,  A. White,  M. Wormit,  M. P. Coons,
 A. L. Dempwolff,  Zhengting Gan,  D. Hait,  P. R. Horn,  L. D. Jacobson,
 I. Kaliman,  J. Kussmann,  A. W. Lange,  Ka Un Lao,  D. S. Levine,  Jie Liu,
 S. C. McKenzie,  A. F. Morrison,  K. Nanda,  F. Plasser,  D. R. Rehn,
 M. L. Vidal,  Zhi-Qiang You,  Ying Zhu,  B. Alam,  B. Albrecht,
 A. Aldossary,  E. Alguire,  J. H. Andersen,  D. Barton,  K. Begam,  A. Behn,
 Y. A. Bernard,  E. J. Berquist,  H. Burton,  A. Carreras,  K. Carter-Fenk,
 R. Chakraborty,  A. D. Chien,  K. D. Closser,  V. Cofer-Shabica,
 S. Dasgupta,  Jia Deng,  M. de Wergifosse,  M. Diedenhofen,  Hainam Do,
 S. Ehlert,  Po-Tung Fang,  S. Fatehi,  Qingguo Feng,  T. Friedhoff,
 J. Gayvert,  Qinghui Ge,  G. Gidofalvi,  M. Goldey,  J. Gomes,
 C. Gonzalez-Espinoza,  S. Gulania,  A. Gunina,  M. W. D. Hanson-Heine,
 P. H. P. Harbach,  A. W. Hauser,  M. F. Herbst,  M. Hernandez Vera,
 M. Hodecker,  Z. C. Holden,  S. Houck,  Xunkun Huang,  Kerwin Hui,
 B. C. Huynh,  M. Ivanov,  Hyunjun Ji,  Hanjie Jiang,  B. Kaduk,  S. Kaehler,
 K. Khistyaev,  Jaehoon Kim,  P. Klunzinger,  Z. Koczor-Benda,
 Joong Hoon Koh,  D. Kosenkov,  L. Koulias,  T. Kowalczyk,  C. M. Krauter,
 K. Kue,  A. Kunitsa,  T. Kus,  A. Landau,  K. V. Lawler,  D. Lefrancois,
 S. Lehtola,  Rain Li,  Yi-Pei Li,  Jiashu Liang,  M. Liebenthal,
 Hung-Hsuan Lin,  You-Sheng Lin,  Fenglai Liu,  Kuan-Yu Liu,
 M. Loipersberger,  A. Luenser,  A. Manjanath,  P. Manohar,  E. Mansoor,
 S. F. Manzer,  Shan-Ping Mao,  A. V. Marenich,  T. Markovich,  S. Mason,
 S. A. Maurer,  P. F. McLaughlin,  M. F. S. J. Menger,  J.-M. Mewes,
 S. A. Mewes,  P. Morgante,  J. W. Mullinax,  K. J. Oosterbaan,  G. Paran,
 Alexander C. Paul,  Suranjan K. Paul,  F. Pavosevic,  Zheng Pei,  S. Prager,
 E. I. Proynov,  E. Ramos,  B. Rana,  A. E. Rask,  A. Rettig,  R. M. Richard,
 F. Rob,  E. Rossomme,  T. Scheele,  M. Scheurer,  M. Schneider,
 N. Sergueev,  S. M. Sharada,  W. Skomorowski,  D. W. Small,  C. J. Stein,
 Yu-Chuan Su,  E. J. Sundstrom,  Zhen Tao,  J. Thirman,  T. Tsuchimochi,
 N. M. Tubman,  S. P. Veccham,  O. Vydrov,  J. Wenzel,  J. Witte,  A. Yamada,
 Kun Yao,  S. Yeganeh,  S. R. Yost,  A. Zech,  Igor Ying Zhang,  Xing Zhang,
 Yu Zhang,  D. Zuev,  A. Aspuru-Guzik,  A. T. Bell,  N. A. Besley,
 K. B. Bravaya,  B. R. Brooks,  D. Casanova,  Jeng-Da Chai,  S. Coriani,
 C. J. Cramer,  A. E. DePrince, III,  R. A. DiStasio Jr.,  A. Dreuw,
 B. D. Dunietz,  T. R. Furlani,  W. A. Goddard III,  S. Grimme,
 S. Hammes-Schiffer,  T. Head-Gordon,  W. J. Hehre,  Chao-Ping Hsu,
 T.-C. Jagau,  Yousung Jung,  A. Klamt,  Jing Kong,  D. S. Lambrecht,
 WanZhen Liang,  N. J. Mayhall,  C. W. McCurdy,  J. B. Neaton,
 C. Ochsenfeld,  J. A. Parkhill,  R. Peverati,  V. A. Rassolov,  Yihan Shao,
 L. V. Slipchenko,  T. Stauch,  R. P. Steele,  J. E. Subotnik,
 A. J. W. Thom,  A. Tkatchenko,  D. G. Truhlar,  T. Van Voorhis,
 T. A. Wesolowski,  K. B. Whaley,  H. L. Woodcock III,  P. M. Zimmerman,
 S. Faraji,  P. M. W. Gill,  M. Head-Gordon,  J. M. Herbert,  A. I. Krylov

 Additional authors for Version 5.4.1:
 S. Kotaru,  Shaozhi Li,  Xiangyuan Li,  F. Matz,  A. Molle,  Haisheng Ren,
 Yingli Su,  Hung-Yi Tsai,  C. Utku,  Fang Wang

 Contributors to earlier versions of Q-Chem not listed above:
 R. D. Adamson,  B. Austin,  R. Baer,  J. Baker,  G. J. O. Beran,
 K. Brandhorst,  S. T. Brown,  E. F. C. Byrd,  A. K. Chakraborty,
 G. K. L. Chan,  Chun-Min Chang,  Yunqing Chen,  C.-L. Cheng,
 Siu Hung Chien,  D. M. Chipman,  D. L. Crittenden,  H. Dachsel,
 R. J. Doerksen,  A. D. Dutoi,  R. G. Edgar,  J. Fosso-Tande,
 L. Fusti-Molnar,  D. Ghosh,  A. Ghysels,  A. Golubeva-Zadorozhnaya,
 J. Gonthier,  M. S. Gordon,  S. R. Gwaltney,  G. Hawkins,  J. E. Herr,
 A. Heyden,  S. Hirata,  E. G. Hohenstein,  G. Kedziora,  F. J. Keil,
 C. Kelley,  Jihan Kim,  R. A. King,  R. Z. Khaliullin,  P. P. Korambath,
 W. Kurlancheek,  A. Laurent,  A. M. Lee,  M. S. Lee,  S. V. Levchenko,
 Ching Yeh Lin,  D. Liotard,  E. Livshits,  R. C. Lochan,  I. Lotan,
 L. A. Martinez-Martinez,  P. E. Maslen,  N. Nair,  D. P. O'Neill,
 D. Neuhauser,  E. Neuscamman,  C. M. Oana,  R. Olivares-Amaya,  R. Olson,
 T. M. Perrine,  B. Peters,  P. A. Pieniazek,  A. Prociuk,  Y. M. Rhee,
 J. Ritchie,  M. A. Rohrdanz,  E. Rosta,  N. J. Russ,  H. F. Schaefer III,
 M. W. Schmidt,  N. E. Schultz,  S. Sharma,  N. Shenvi,  C. D. Sherrill,
 A. C. Simmonett,  A. Sodt,  T. Stein,  D. Stuck,  K. S. Thanthiriwatte,
 V. Vanovschi,  L. Vogt,  Tao Wang,  A. Warshel,  M. A. Watson,
 C. F. Williams,  Q. Wu,  X. Xu,  Jun Yang,  W. Zhang,  Yan Zhao

 Please cite Q-Chem as follows:
 Y. Shao et al., Mol. Phys. 113, 184-215 (2015)
 DOI: 10.1080/00268976.2014.952696

 Q-Chem 5.4.1 for Intel X86 EM64T Linux

 Parts of Q-Chem use Armadillo 9.900.5 (Nocturnal Misbehaviour).
 http://arma.sourceforge.net/

 Q-Chem begins on Wed Jun  1 23:30:40 2022

 Host: p09r14n13.grace.hpc.yale.internal
0

     Scratch files written to /home/tl686/scratch60/qchem_dev/scratch/qchem244552//
 Processing $rem in /home/tl686/qchem_dev/qchem/config/preferences:
 Processing $rem in /home/tl686/.qchemrc:
Applying user defined connections for MM calculations
The previous job contains 0 fragments, simply inherited here

 Checking the input file for inconsistencies... 	...done.

--------------------------------------------------------------
User input:
--------------------------------------------------------------

$molecule
READ
$end

$qm_atoms
1:11
$end

$force_field_params
NumAtomTypes 3
AtomType -1   0.0238     3.11   0.2868
AtomType -2   0.07124    3.30   0.6597
AtomType -3  -0.0760     3.09   0.1434
$end

$rem
     JOBTYPE  freq
     METHOD   bp86
     BASIS    def2-msvp
     MAX_SCF_CYCLES   800
     INPUT_BOHR TRUE
     SYM_IGNORE TRUE
     SCF_GUESS     read
     user_connect            true
     qm_mm_interface         ONIOM
     force_field             oplsaa
$end

--------------------------------------------------------------

    2   -1830.5221530786      6.00E-09 Convergence criterion met
 Total energy in the final basis set = -1828.32140103

                    Orbital Energies (a.u.)
 --------------------------------------------------------------

 Alpha MOs
 -- Occupied --
******** -29.6393 -25.5987 -25.5875 -25.5820 -18.8924 -18.8886 -18.8885
-18.8720 -18.8667 -10.0598 -10.0583 -10.0527 -10.0439 -10.0422  -3.3235
 -2.1583  -2.1373  -2.1248  -1.0699  -1.0626  -1.0582  -1.0310  -1.0168
 -0.5763  -0.5298  -0.5239  -0.5163  -0.5146  -0.4579  -0.4462  -0.4409
 -0.4373  -0.4333  -0.4312  -0.4264  -0.4208  -0.4119  -0.4064  -0.4023
 -0.3988  -0.3942  -0.3907  -0.3758  -0.2818  -0.2728  -0.2372  -0.2247

          Ground-State Mulliken Net Atomic Charges

     Atom                 Charge (a.u.)
  ----------------------------------------
      1 Fe                   -0.485980
      2 C                     0.246416
      3 C                     0.208271
      4 C                     0.221983
      5 C                     0.200811
      6 C                     0.214354
      7 O                    -0.138957
      8 O                    -0.160798
      9 O                    -0.098092
     10 O                    -0.113442
     11 O                    -0.094565
  ----------------------------------------
  Sum of atomic charges =     0.000000

                    Cartesian Multipole Moments
 -----------------------------------------------------------------
    Charge (ESU x 10^10)
                -0.0000
    Dipole Moment (Debye)
         X       0.4652531239      Y       0.6220599180      Z       0.1808213267
       Tot       0.7975684065
    Quadrupole Moments (Debye-Ang)
        XX     -16.0033     XY      34.3184     YY     -73.4119
        XZ      18.5908     YZ      12.6278     ZZ     -62.6931
