 Q-Chem 5.4 (devel), Q-Chem, Inc., Pleasanton, CA (2021)
 Q-Chem 5.4.1 for Intel X86 EM64T Linux

User input:
--------------------------------------------------------------
$molecule
0   1
 Fe -1428.32621556 15.94209589 37.95651993    -1  0   0   0   0
C -1426.99294518 18.32950784 36.01908552    -2  0   0   0   0
C -1429.00720420 13.16593986 39.63604422    -2  0   0   0   0
C -1431.25165431 17.52392233 38.90957528    -2  0   0   0   0
C -1428.36163741 13.75932025 35.32981669    -2  0   0   0   0
C -1425.61124137 16.23729085 39.73713962    -2  0   0   0   0
O -1426.19479129 19.90947552 34.72951512    -3  0   0   0   0
O -1429.63443161 11.44387317 40.83759510    -3  0   0   0   0
O -1433.37985613 18.23074397 39.34657946    -3  0   0   0   0
O -1428.37005886 12.09667872 33.84858493    -3  0   0   0   0
O -1423.26618199 16.82241015 41.07636908    -3  0   0   0   0
H -1448.50116690 35.15817600 27.47269086      6     13    0    0    0
C -1447.38517398 36.61309346 26.49376570     1     12    14    15    16
H -1448.36298367 38.43246365 26.43852854     6     13    0    0    0
H -1445.59629092 37.08752582 27.49075061     6     13    0    0    0
C -1447.20655298 35.57862982 23.83250933     2     13    17    18    19
H -1449.00369769 34.69006529 23.38989127     6     16    0    0    0
H -1446.78873856 37.17054465 22.50833905     6     16    0    0    0
C -1445.14984507 33.57268820 23.66712879     2     16    20   21   22
H -1443.11530415 34.22108821 23.55850860     6     19    0    0    0
H -1445.23783151 32.43851018 25.36149037     6     19    0    0    0
C -1445.35567397 31.78753968 21.14026661     2     19   23   24   25
H -1447.24029148 31.05936257 21.07935356     6    22    0    0    0
H -1444.98389416 32.96458639 19.52465301     6    22    0    0    0
C -1443.74923041 29.38533396 20.96965000     2    22   26   27   28
H -1441.76044002 29.93967614 21.06172195     6    25    0    0    0
H -1444.39812290 28.39467850 22.64869422     6    25    0    0    0
C -1444.33314294 27.67652486 18.66391924     2    25   29   30   31
H -1446.25199967 27.13868961 18.52987823     6    28    0    0    0
H -1444.22241414 28.91029153 17.00065528     6    28    0    0    0
C -1442.54175285 25.41229437 18.55862066     2    28   32   33   34
H -1440.54804069 25.94254612 18.72405537     6    31    0    0    0
H -1442.90326535 24.17765902 20.03887733     6    31    0    0    0
C -1442.91064367 23.57757839 16.27087123     2    31   35   36   37
H -1444.73478852 22.50010148 16.23782585     6    34    0    0    0
H -1442.79398112 24.75639125 14.44920138     6    34    0    0    0
C -1440.72426674 21.72662736 16.34207211     2    34   38   39   40
H -1439.17942134 22.94081648 15.84995206     6    37    0    0    0
H -1440.41304333 20.92797889 18.15182337     6    37    0    0    0
C -1440.87170855 19.63532983 14.20715179     2    37   41   42   43
H -1442.92978647 19.09279267 13.80916070     6    40    0    0    0
H -1440.21603491 20.37738760 12.43412596     6    40    0    0    0
C -1439.56311843 17.16309096 15.11053223     2    40   44   45   46
H -1437.81256493 17.66752274 15.93472298     6    43    0    0    0
H -1440.72635582 16.32691754 16.58563829     6    43    0    0    0
C -1439.12183657 15.25758505 13.04349190     1    43   47   48   49
H -1440.86935349 14.86687517 11.94027152     6    46    0    0    0
H -1438.24846023 13.68421331 14.00847357     6    46    0    0    0
H -1437.69030340 16.22041302 11.79911568     6    46    0    0    0
H -1425.33924302 14.21559037 27.93364866     6     51    0    0    0
C -1425.26752620 15.71595929 29.44516291     1     50    52    53    54
H -1425.81024096 14.99073533 31.25878303     6     51    0    0    0
H -1423.26730904 16.41109440 29.51301180     6     51    0    0    0
C -1426.95529472 17.81639083 28.57209769     2     51    55    56    57
H -1427.25136454 19.02790654 30.16815808     6     54    0    0    0
H -1425.84417401 18.81411288 27.11771752     6     54    0    0    0
C -1429.63808176 17.10474165 27.57539646     2     54    58   59   60
H -1430.38206891 15.70552644 29.03920845     6     57    0    0    0
H -1430.94191251 18.73140240 27.78578721     6     57    0    0    0
C -1429.79056247 16.03418981 24.91094409     2     57   61   62   63
H -1429.48820335 17.43844431 23.43989584     6    60    0    0    0
H -1428.14590906 14.80033017 24.43232185     6    60    0    0    0
C -1432.23611464 14.80174676 24.19775155     2    60   64   65   66
H -1432.58543808 12.91966839 25.12573005     6    63    0    0    0
H -1433.83036025 15.90285990 24.83398717     6    63    0    0    0
C -1432.58361759 14.37702055 21.29329767     2    63   67   68   69
H -1434.44443719 13.72591996 20.81519786     6    66    0    0    0
H -1432.62582991 16.31173892 20.53430596     6    66    0    0    0
C -1430.64549523 12.67621515 19.90899545     2    66   70   71   72
H -1428.77902377 13.25878448 20.35435688     6    69    0    0    0
H -1430.94333471 10.72202520 20.75373196     6    69    0    0    0
C -1431.08581515 12.40281724 17.07198691     2    69   73   74   75
H -1433.07176121 11.62932148 16.82006656     6    72    0    0    0
H -1430.96471327 14.21389470 16.12489775     6    72    0    0    0
C -1429.10499438 10.65727223 15.84921001     2    72   76   77   78
H -1427.08757701 11.40527672 16.30677554     6    75    0    0    0
H -1429.32103113 8.79222732 16.49628956     6    75    0    0    0
C -1429.74397721 10.63048198 12.91513402     2    75   79   80   81
H -1431.80111952 10.14120941 12.82844003     6    78    0    0    0
H -1429.56439785 12.60367365 12.19713779     6    78    0    0    0
C -1428.09163757 8.83419128 11.41707183     2    78   82   83   84
H -1426.26101732 9.57820825 11.62006021     6    81    0    0    0
H -1427.87904336 7.01440748 12.41865340     6    81    0    0    0
C -1429.36301354 8.63214779 8.78376468     1    81   85   86   87
H -1427.96767948 7.49579397 7.38650946     6    84    0    0    0
H -1429.73144486 10.51270475 8.00242179     6    84    0    0    0
H -1431.17569731 7.58906593 8.78546692     6    84    0    0    0
H -1453.85094353 29.76511300 31.10559844     6     89    0    0    0
C -1453.89102366 27.79498827 30.55607117     1     88    90    91    92
H -1452.14080596 26.82487627 30.97174637     6     89    0    0    0
H -1455.32313264 26.93809300 31.58048598     6     89    0    0    0
C -1454.33578203 27.56325616 27.68545606     2     89    93    94    95
H -1456.06280652 28.55755446 26.99354259     6     92    0    0    0
H -1452.67087551 28.61543582 26.96452938     6     92    0    0    0
C -1454.42949750 24.91944063 26.39784385     2     92    96   97   98
H -1452.65169164 23.92079436 27.08269893     6     95    0    0    0
H -1456.09676323 23.98002894 27.05325549     6     95    0    0    0
C -1454.42357227 25.37037605 23.53337528     2     95   99   100   101
H -1455.61437839 26.96323426 22.83783532     6    98    0    0    0
H -1452.43937977 25.97415245 23.33257281     6    98    0    0    0
C -1454.88896282 22.93689733 21.93885870     2    98   102   103   104
H -1454.03265236 21.31239292 22.83656473     6    101    0    0    0
H -1456.92572049 22.33125778 21.98914533     6    101    0    0    0
C -1454.02083777 23.16482062 19.19259321     2    101   105   106   107
H -1454.70358995 24.89334859 18.36753580     6    104    0    0    0
H -1451.94965134 23.37316357 18.98465845     6    104    0    0    0
C -1454.64627770 20.97694007 17.29672019     2    104   108   109   110
H -1453.44672244 19.38278377 17.89473796     6    107    0    0    0
H -1456.54000557 20.14347186 17.94870683     6    107    0    0    0
C -1454.64635758 21.59799033 14.38427171     2    107   111   112   113
H -1455.29781197 23.55972801 13.98550072     6    110    0    0    0
H -1452.82981802 21.32943710 13.66752808     6    110    0    0    0
C -1456.32356284 19.73183056 12.91558429     2    110   114   115   116
H -1455.37445163 17.90695488 12.88592835     6    113    0    0    0
H -1458.18023885 19.36443680 13.76364450     6    113    0    0    0
C -1456.60898229 20.53710671 10.09044895     2    113   117   118   119
H -1457.22794447 22.50651855 9.95665451     6    116    0    0    0
H -1454.74525829 20.58174554 9.16872190     6    116    0    0    0
C -1458.21114611 18.71828667 8.50648410     2    116   120   121   122
H -1458.03842887 19.36518079 6.57175133     6    119    0    0    0
H -1457.59271814 16.80553335 8.53454526     6    119    0    0    0
C -1460.91718452 18.69847639 9.25156572     1    119   123   124   125
H -1461.30070626 17.55868697 10.98162348     6    122    0    0    0
H -1462.08870446 17.60225964 7.85034952     6    122    0    0    0
H -1461.50109242 20.58024440 9.59797862     6    122    0    0    0
H -1462.20481178 12.58207607 55.00023909     6     127    0    0    0
C -1460.28603899 11.74376935 54.61897529     1     126    128    129    130
H -1459.29316322 11.13397561 56.35060588     6     127    0    0    0
H -1460.69137379 9.96558209 53.49302069     6     127    0    0    0
C -1458.45972902 13.40746588 53.17337425     2     127    131    132    133
H -1459.39194692 14.32079492 51.60415299     6     130    0    0    0
H -1457.90272408 14.81401201 54.59267306     6     130    0    0    0
C -1456.19999254 11.92821678 52.27858039     2     130    134   135   136
H -1455.30036137 10.72750944 53.75757259     6     133    0    0    0
H -1456.92708248 10.64617809 50.73279109     6     133    0    0    0
C -1454.12238347 13.72740883 51.16597148     2     133   137   138   139
H -1454.98466541 14.79482916 49.64286769     6    136    0    0    0
H -1453.44253810 14.98041479 52.62161751     6    136    0    0    0
C -1451.72489176 12.36457199 50.23705783     2    136   140   141   142
H -1450.82013154 11.03386841 51.46839091     6    139    0    0    0
H -1452.41892441 11.10189138 48.59198383     6    139    0    0    0
C -1449.91561428 14.22827653 49.11976491     2    139   143   144   145
H -1450.67416972 15.26046375 47.54824107     6    142    0    0    0
H -1449.62646658 15.70540338 50.41797049     6    142    0    0    0
C -1447.31948535 12.96756400 48.36355149     2    142   146   147   148
H -1446.58647126 12.00366287 49.95748729     6    145    0    0    0
H -1447.80803413 11.53042443 46.97190781     6    145    0    0    0
C -1445.64849425 14.79036859 47.14006677     2    145   149   150   151
H -1446.74172067 15.60678740 45.59515638     6    148    0    0    0
H -1445.57514322 16.63816484 48.09393669     6    148    0    0    0
C -1442.79347575 13.89371350 46.64162030     2    148   152   153   154
H -1441.79918472 13.37517317 48.45431099     6    151    0    0    0
H -1442.85425438 12.15109213 45.56859777     6    151    0    0    0
C -1441.44813756 15.94433491 45.05592287     2    151   155   156   157
H -1439.89871263 15.11545445 44.08083507     6    154    0    0    0
H -1442.42691618 16.57284322 43.36326227     6    154    0    0    0
C -1440.45030177 18.16376548 46.65551256     2    154   158   159   160
H -1441.85359679 19.55452053 47.32143951     6    157    0    0    0
H -1439.46475335 17.53853894 48.29091160     6    157    0    0    0
C -1438.76674122 19.85100150 45.19247121     1    157   161   162   163
H -1438.02293393 21.45383033 46.13521387     6    160    0    0    0
H -1439.94100827 20.43021293 43.66565537     6    160    0    0    0
H -1437.06920057 18.97957425 44.40348938     6    160    0    0    0
H -1463.83011217 -5.05739602 31.19083909     6     165    0    0    0
C -1464.26497149 -4.88795288 33.18146275     1     164    166    167    168
H -1464.34117780 -2.90625711 33.54508509     6     165    0    0    0
H -1466.14466309 -5.64426027 33.37181052     6     165    0    0    0
C -1462.40685936 -6.12973438 34.81544498     2     165    169    170    171
H -1461.77269771 -7.97529670 34.27627125     6     168    0    0    0
H -1460.72139819 -5.09902595 34.54890211     6     168    0    0    0
C -1463.00755219 -6.03919830 37.66767366     2     168    172   173   174
H -1464.00229959 -4.20256723 38.00741724     6     171    0    0    0
H -1464.25054542 -7.52896818 38.20653730     6     171    0    0    0
C -1460.61162892 -6.15843342 39.16496161     2     171   175   176   177
H -1459.50152988 -7.90551462 38.71578972     6    174    0    0    0
H -1459.30938817 -4.62344762 38.62051068     6    174    0    0    0
C -1460.98879094 -5.96706177 42.07437993     2    174   178   179   180
H -1462.04684849 -4.32938669 42.52672857     6    177    0    0    0
H -1462.08519851 -7.60887223 42.74992866     6    177    0    0    0
C -1458.37519110 -6.11547238 43.63024796     2    177   181   182   183
H -1457.37250851 -7.88218820 43.17710791     6    180    0    0    0
H -1457.17874879 -4.64629998 43.19808775     6    180    0    0    0
C -1458.56395267 -6.50978065 46.45379462     2    180   184   185   186
H -1459.72631490 -4.91830032 47.26402469     6    183    0    0    0
H -1459.68329418 -8.12837746 47.10211169     6    183    0    0    0
C -1456.02433193 -6.61293225 47.75525151     2    183   187   188   189
H -1454.77717932 -7.63642129 46.42397883     6    186    0    0    0
H -1455.27030587 -4.56512252 47.87973039     6    186    0    0    0
C -1456.10520306 -8.08906050 50.19744930     2    186   190   191   192
H -1456.79857303 -6.95106818 51.62664164     6    189    0    0    0
H -1457.09472165 -9.93034718 50.04083821     6    189    0    0    0
C -1453.69766238 -8.86924015 51.57240229     2    189   193   194   195
H -1452.14677112 -9.32884506 50.24140272     6    192    0    0    0
H -1453.02904632 -7.15555454 52.60439866     6    192    0    0    0
C -1454.14155986 -10.98199485 53.59405676     2    192   196   197   198
H -1455.66029402 -10.50793441 54.91286285     6    195    0    0    0
H -1454.78562136 -12.68606298 52.52395583     6    195    0    0    0
C -1451.62495564 -11.53121229 54.98035291     1    195   199   200   201
H -1452.08004619 -12.92782275 56.44922581     6    198    0    0    0
H -1450.88877053 -9.91009013 56.13538850     6    198    0    0    0
H -1450.27230310 -12.21571765 53.63003658     6    198    0    0    0
H -1446.43488633 -1.46287867 28.25835471     6     203    0    0    0
C -1448.03150778 -2.54833465 27.75471228     1     202    204    205    206
H -1447.86572838 -4.52817192 28.26838466     6     203    0    0    0
H -1449.40737597 -1.89197509 29.20811800     6     203    0    0    0
C -1448.89358114 -2.37423202 24.91181868     2     203    207    208    209
H -1450.69240622 -3.42852660 24.63141787     6     206    0    0    0
H -1449.21066556 -0.34961556 24.43610563     6     206    0    0    0
C -1446.78927277 -3.56225491 23.17905607     2     206    210   211   212
H -1447.33017465 -3.22262331 21.17673143     6     209    0    0    0
H -1444.94484351 -2.85157305 23.55079807     6     209    0    0    0
C -1446.56638566 -6.44896606 23.73713342     2     209   213   214   215
H -1445.30205691 -6.66598393 25.54028856     6    212    0    0    0
H -1448.27991122 -7.53529778 23.88102129     6    212    0    0    0
C -1445.29206575 -7.84373578 21.65175366     2    212   216   217   218
H -1446.56943141 -7.87016957 19.93103425     6    215    0    0    0
H -1443.81529818 -6.87948160 20.83147074     6    215    0    0    0
C -1444.31064572 -10.57418233 22.55037142     2    215   219   220   221
H -1442.58194427 -10.22958527 23.66173340     6    218    0    0    0
H -1445.66797580 -11.51219673 23.75205790     6    218    0    0    0
C -1443.31437257 -12.35212590 20.37410632     2    218   222   223   224
H -1445.06422995 -12.74753659 19.33664001     6    221    0    0    0
H -1442.12051409 -11.28311462 19.03251787     6    221    0    0    0
C -1441.88603129 -14.75683969 21.19322591     2    221   225   226   227
H -1440.40294756 -13.95926919 22.54687430     6    224    0    0    0
H -1443.02328323 -16.03663450 22.09928633     6    224    0    0    0
C -1440.44824006 -16.03996573 19.06574281     2    224   228   229   230
H -1441.95242377 -16.85904529 17.92591662     6    227    0    0    0
H -1439.47079028 -14.73009933 17.76861975     6    227    0    0    0
C -1438.53893234 -18.04615552 20.02877319     2    227   231   232   233
H -1437.08048164 -16.95790713 20.95384122     6    230    0    0    0
H -1439.45687450 -19.54385123 21.23756393     6    230    0    0    0
C -1437.32304008 -19.58108433 17.79272841     2    230   234   235   236
H -1438.64882969 -21.04843948 17.07381211     6    233    0    0    0
H -1437.05361672 -18.54974706 15.94459003     6    233    0    0    0
C -1434.69577663 -20.72979737 18.53982128     1    233   237   238   239
H -1433.73726073 -21.69263100 17.00402069     6    236    0    0    0
H -1434.90865342 -22.03639935 20.03660368     6    236    0    0    0
H -1433.45581246 -19.36891415 19.24587358     6    236    0    0    0
H -1436.40661778 8.11441104 3.61691658     6     241    0    0    0
C -1438.35700801 7.92633968 4.49894194     1     240    242    243    244
H -1439.59857680 6.94506336 3.20619989     6     241    0    0    0
H -1438.25370118 6.71660914 6.11241334     6     241    0    0    0
C -1439.36991753 10.59442085 5.45753659     2     241    245    246    247
H -1439.40448485 11.61241773 3.65864208     6     244    0    0    0
H -1441.47856057 10.48458371 5.82953898     6     244    0    0    0
C -1438.16025391 11.90468773 7.79041711     2     244    248   249   250
H -1439.26561186 13.59212502 8.28684335     6     247    0    0    0
H -1438.12921935 10.55435618 9.44409560     6     247    0    0    0
C -1435.36777193 12.81880068 7.32184036     2     247   251   252   253
H -1434.71286431 13.65519329 9.10934472     6    250    0    0    0
H -1434.13386192 11.22042860 6.85341953     6    250    0    0    0
C -1435.07034190 14.85787804 5.20520774     2    250   254   255   256
H -1436.01077302 14.21175728 3.45082088     6    253    0    0    0
H -1436.12382434 16.45724873 5.92200829     6    253    0    0    0
C -1432.30607211 15.30529640 4.40618353     2    253   257   258   259
H -1432.01943563 17.21327262 3.50221296     6    256    0    0    0
H -1431.24312982 15.67451604 6.07007918     6    256    0    0    0
C -1431.06607300 13.34430487 2.72219027     2    256   260   261   262
H -1430.98631018 11.68328822 3.63395953     6    259    0    0    0
H -1432.34746291 12.99718728 1.14452487     6    259    0    0    0
C -1428.30858531 14.00971315 1.81176339     2    259   263   264   265
H -1428.65566744 15.56302161 0.55775285     6    262    0    0    0
H -1427.01765373 14.64092046 3.26445549     6    262    0    0    0
C -1426.84813617 11.96440505 0.23808750     2    262   266   267   268
H -1426.00396946 10.73515886 1.76271150     6    265    0    0    0
H -1427.97806888 10.63446143 -0.91227834     6    265    0    0    0
C -1424.69820524 12.83098939 -1.40585344     2    265   269   270   271
H -1425.30635510 14.02700865 -2.92673602     6    268    0    0    0
H -1423.53994101 14.07468410 -0.29314979     6    268    0    0    0
C -1423.10484205 10.79388664 -2.65880492     2    268   272   273   274
H -1422.14978064 9.58052197 -1.34109423     6    271    0    0    0
H -1424.33840712 9.50469822 -3.72259363     6    271    0    0    0
C -1421.36261687 11.94534089 -4.62492057     1    271   275   276   277
H -1422.53551744 13.06386112 -5.99092921     6    274    0    0    0
H -1420.09535527 10.82398476 -5.71017860     6    274    0    0    0
H -1420.18988432 13.29541223 -3.56539948     6    274    0    0    0
H -1456.44797776 -0.10129264 18.86518512     6     279    0    0    0
C -1455.11830861 1.03630340 17.68859014     1     278    280    281    282
H -1455.60981655 1.13275085 15.66914987     6     279    0    0    0
H -1455.18733336 2.90756379 18.46053187     6     279    0    0    0
C -1452.51491896 -0.06372540 17.81441743     2     279    283    284    285
H -1451.83450947 0.10202504 19.67425488     6     282    0    0    0
H -1452.31554454 -2.16596568 17.31451757     6     282    0    0    0
C -1450.69262446 1.13055692 15.86508008     2     282    286   287   288
H -1451.17722194 0.31338898 14.03589910     6     285    0    0    0
H -1450.70156767 3.21371794 15.94198613     6     285    0    0    0
C -1448.04865343 0.20644085 16.37528228     2     285   289   290   291
H -1447.48449606 0.96295767 18.17040105     6    288    0    0    0
H -1447.89185971 -1.76676895 16.92483237     6    288    0    0    0
C -1446.22040809 0.57028913 14.01320202     2    288   292   293   294
H -1447.23478489 0.14922025 12.31900157     6    291    0    0    0
H -1445.59407162 2.51833161 13.83022257     6    291    0    0    0
C -1443.73527074 -0.91421518 14.24125889     2    291   295   296   297
H -1443.12388012 -0.43128342 16.13141248     6    294    0    0    0
H -1444.06695831 -2.87663870 14.28350714     6    294    0    0    0
C -1441.67599455 -0.48993894 12.13996982     2    294   298   299   300

   19   -1830.4273281621      8.54E-09 Convergence criterion met
 Total energy in the final basis set = -1828.16708866
 Total job time:  17.07s(wall), 30.39s(cpu)
        *  Thank you very much for using Q-Chem.  Have a nice day.  *

User input: 2 of 2

                  Welcome to Q-Chem
     A Quantum Leap Into The Future Of Chemistry

 Q-Chem 5.4 (devel), Q-Chem, Inc., Pleasanton, CA (2021)

 E. Epifanovsky,  A. T. B. Gilbert,  Xintian Feng,  Joonho Lee,  Yuezhi Mao,
 N. Mardirossian,  P. Pokhilko,  A. White,  M. Wormit,  M. P. Coons,
 A. L. Dempwolff,  Zhengting Gan,  D. Hait,  P. R. Horn,  L. D. Jacobson,
 I. Kaliman,  J. Kussmann,  A. W. Lange,  Ka Un Lao,  D. S. Levine,  Jie Liu,
 S. C. McKenzie,  A. F. Morrison,  K. Nanda,  F. Plasser,  D. R. Rehn,
 M. L. Vidal,  Zhi-Qiang You,  Ying Zhu,  B. Alam,  B. Albrecht,
 A. Aldossary,  E. Alguire,  J. H. Andersen,  D. Barton,  K. Begam,  A. Behn,
 Y. A. Bernard,  E. J. Berquist,  H. Burton,  A. Carreras,  K. Carter-Fenk,
 R. Chakraborty,  A. D. Chien,  K. D. Closser,  V. Cofer-Shabica,
 S. Dasgupta,  Jia Deng,  M. de Wergifosse,  M. Diedenhofen,  Hainam Do,
 S. Ehlert,  Po-Tung Fang,  S. Fatehi,  Qingguo Feng,  T. Friedhoff,
 J. Gayvert,  Qinghui Ge,  G. Gidofalvi,  M. Goldey,  J. Gomes,
 C. Gonzalez-Espinoza,  S. Gulania,  A. Gunina,  M. W. D. Hanson-Heine,
 P. H. P. Harbach,  A. W. Hauser,  M. F. Herbst,  M. Hernandez Vera,
 M. Hodecker,  Z. C. Holden,  S. Houck,  Xunkun Huang,  Kerwin Hui,
 B. C. Huynh,  M. Ivanov,  Hyunjun Ji,  Hanjie Jiang,  B. Kaduk,  S. Kaehler,
 K. Khistyaev,  Jaehoon Kim,  P. Klunzinger,  Z. Koczor-Benda,
 Joong Hoon Koh,  D. Kosenkov,  L. Koulias,  T. Kowalczyk,  C. M. Krauter,
 K. Kue,  A. Kunitsa,  T. Kus,  A. Landau,  K. V. Lawler,  D. Lefrancois,
 S. Lehtola,  Rain Li,  Yi-Pei Li,  Jiashu Liang,  M. Liebenthal,
 Hung-Hsuan Lin,  You-Sheng Lin,  Fenglai Liu,  Kuan-Yu Liu,
 M. Loipersberger,  A. Luenser,  A. Manjanath,  P. Manohar,  E. Mansoor,
 S. F. Manzer,  Shan-Ping Mao,  A. V. Marenich,  T. Markovich,  S. Mason,
 S. A. Maurer,  P. F. McLaughlin,  M. F. S. J. Menger,  J.-M. Mewes,
 S. A. Mewes,  P. Morgante,  J. W. Mullinax,  K. J. Oosterbaan,  G. Paran,
 Alexander C. Paul,  Suranjan K. Paul,  F. Pavosevic,  Zheng Pei,  S. Prager,
 E. I. Proynov,  E. Ramos,  B. Rana,  A. E. Rask,  A. Rettig,  R. M. Richard,
 F. Rob,  E. Rossomme,  T. Scheele,  M. Scheurer,  M. Schneider,
 N. Sergueev,  S. M. Sharada,  W. Skomorowski,  D. W. Small,  C. J. Stein,
 Yu-Chuan Su,  E. J. Sundstrom,  Zhen Tao,  J. Thirman,  T. Tsuchimochi,
 N. M. Tubman,  S. P. Veccham,  O. Vydrov,  J. Wenzel,  J. Witte,  A. Yamada,
 Kun Yao,  S. Yeganeh,  S. R. Yost,  A. Zech,  Igor Ying Zhang,  Xing Zhang,
 Yu Zhang,  D. Zuev,  A. Aspuru-Guzik,  A. T. Bell,  N. A. Besley,
 K. B. Bravaya,  B. R. Brooks,  D. Casanova,  Jeng-Da Chai,  S. Coriani,
 C. J. Cramer,  A. E. DePrince, III,  R. A. DiStasio Jr.,  A. Dreuw,
 B. D. Dunietz,  T. R. Furlani,  W. A. Goddard III,  S. Grimme,
 S. Hammes-Schiffer,  T. Head-Gordon,  W. J. Hehre,  Chao-Ping Hsu,
 T.-C. Jagau,  Yousung Jung,  A. Klamt,  Jing Kong,  D. S. Lambrecht,
 WanZhen Liang,  N. J. Mayhall,  C. W. McCurdy,  J. B. Neaton,
 C. Ochsenfeld,  J. A. Parkhill,  R. Peverati,  V. A. Rassolov,  Yihan Shao,
 L. V. Slipchenko,  T. Stauch,  R. P. Steele,  J. E. Subotnik,
 A. J. W. Thom,  A. Tkatchenko,  D. G. Truhlar,  T. Van Voorhis,
 T. A. Wesolowski,  K. B. Whaley,  H. L. Woodcock III,  P. M. Zimmerman,
 S. Faraji,  P. M. W. Gill,  M. Head-Gordon,  J. M. Herbert,  A. I. Krylov

 Additional authors for Version 5.4.1:
 S. Kotaru,  Shaozhi Li,  Xiangyuan Li,  F. Matz,  A. Molle,  Haisheng Ren,
 Yingli Su,  Hung-Yi Tsai,  C. Utku,  Fang Wang

 Contributors to earlier versions of Q-Chem not listed above:
 R. D. Adamson,  B. Austin,  R. Baer,  J. Baker,  G. J. O. Beran,
 K. Brandhorst,  S. T. Brown,  E. F. C. Byrd,  A. K. Chakraborty,
 G. K. L. Chan,  Chun-Min Chang,  Yunqing Chen,  C.-L. Cheng,
 Siu Hung Chien,  D. M. Chipman,  D. L. Crittenden,  H. Dachsel,
 R. J. Doerksen,  A. D. Dutoi,  R. G. Edgar,  J. Fosso-Tande,
 L. Fusti-Molnar,  D. Ghosh,  A. Ghysels,  A. Golubeva-Zadorozhnaya,
 J. Gonthier,  M. S. Gordon,  S. R. Gwaltney,  G. Hawkins,  J. E. Herr,
 A. Heyden,  S. Hirata,  E. G. Hohenstein,  G. Kedziora,  F. J. Keil,
 C. Kelley,  Jihan Kim,  R. A. King,  R. Z. Khaliullin,  P. P. Korambath,
 W. Kurlancheek,  A. Laurent,  A. M. Lee,  M. S. Lee,  S. V. Levchenko,
 Ching Yeh Lin,  D. Liotard,  E. Livshits,  R. C. Lochan,  I. Lotan,
 L. A. Martinez-Martinez,  P. E. Maslen,  N. Nair,  D. P. O'Neill,
 D. Neuhauser,  E. Neuscamman,  C. M. Oana,  R. Olivares-Amaya,  R. Olson,
 T. M. Perrine,  B. Peters,  P. A. Pieniazek,  A. Prociuk,  Y. M. Rhee,
 J. Ritchie,  M. A. Rohrdanz,  E. Rosta,  N. J. Russ,  H. F. Schaefer III,
 M. W. Schmidt,  N. E. Schultz,  S. Sharma,  N. Shenvi,  C. D. Sherrill,
 A. C. Simmonett,  A. Sodt,  T. Stein,  D. Stuck,  K. S. Thanthiriwatte,
 V. Vanovschi,  L. Vogt,  Tao Wang,  A. Warshel,  M. A. Watson,
 C. F. Williams,  Q. Wu,  X. Xu,  Jun Yang,  W. Zhang,  Yan Zhao

 Please cite Q-Chem as follows:
 Y. Shao et al., Mol. Phys. 113, 184-215 (2015)
 DOI: 10.1080/00268976.2014.952696

 Q-Chem 5.4.1 for Intel X86 EM64T Linux

 Parts of Q-Chem use Armadillo 9.900.5 (Nocturnal Misbehaviour).
 http://arma.sourceforge.net/

 Q-Chem begins on Wed Jun 22 08:05:42 2022

 Host: p09r16n04.grace.hpc.yale.internal
0

     Scratch files written to /home/tl686/scratch60/qchem_dev/scratch/qchem69625//
 Processing $rem in /home/tl686/qchem_dev/qchem/config/preferences:
 Processing $rem in /home/tl686/.qchemrc:
Applying user defined connections for MM calculations
The previous job contains 0 fragments, simply inherited here

 Checking the input file for inconsistencies... 	...done.

--------------------------------------------------------------
User input:
--------------------------------------------------------------

$molecule
READ
$end

$qm_atoms
1:11
$end

$force_field_params
NumAtomTypes 3
AtomType -1   0.0238     3.11   0.2868
AtomType -2   0.07124    3.30   0.6597
AtomType -3  -0.0760     3.09   0.1434
$end

$rem
     JOBTYPE  freq
     METHOD   bp86
     BASIS    def2-msvp
     MAX_SCF_CYCLES   800
     INPUT_BOHR TRUE
     SYM_IGNORE TRUE
     SCF_GUESS     read
     user_connect            true
     qm_mm_interface         ONIOM
     force_field             oplsaa
$end

--------------------------------------------------------------

    2   -1830.4273281628      6.64E-09 Convergence criterion met
 Total energy in the final basis set = -1828.16708866

                    Orbital Energies (a.u.)
 --------------------------------------------------------------

 Alpha MOs
 -- Occupied --
******** -29.6578 -25.6156 -25.6056 -25.6014 -18.9010 -18.8985 -18.8958
-18.8850 -18.8466 -10.0729 -10.0679 -10.0679 -10.0664 -10.0579  -3.3453
 -2.1797  -2.1584  -2.1495  -1.0763  -1.0732  -1.0601  -1.0315  -0.8902
 -0.6013  -0.5455  -0.5364  -0.5286  -0.5265  -0.4717  -0.4617  -0.4519
 -0.4489  -0.4401  -0.4369  -0.4295  -0.4258  -0.4154  -0.4113  -0.4054
 -0.4016  -0.3833  -0.3304  -0.3280  -0.2910  -0.2856  -0.2526  -0.2416

          Ground-State Mulliken Net Atomic Charges

     Atom                 Charge (a.u.)
  ----------------------------------------
      1 Fe                   -0.404928
      2 C                     0.220974
      3 C                     0.205027
      4 C                     0.261846
      5 C                     0.237486
      6 C                     0.215423
      7 O                    -0.094855
      8 O                    -0.093527
      9 O                    -0.143620
     10 O                    -0.112793
     11 O                    -0.291032
  ----------------------------------------
  Sum of atomic charges =     0.000000

                    Cartesian Multipole Moments
 -----------------------------------------------------------------
    Charge (ESU x 10^10)
                -0.0000
    Dipole Moment (Debye)
         X      -1.2487094353      Y      -0.5732275171      Z      -1.2703017578
       Tot       1.8712379849
    Quadrupole Moments (Debye-Ang)
        XX    1812.5981     XY     422.0607     YY     -78.1480
        XZ     932.0016     YZ     -23.4346     ZZ    -121.1354

 Frequency:       -24.37                  57.77                 117.40
 Force Cnst:      0.0053                 0.0308                 0.1252
 Red. Mass:      15.1629                15.6850                15.4179
 IR Intens:        0.000                  0.000                  0.000
 Frequency:       126.65                 130.51                 164.34
 Force Cnst:      0.1441                 0.1739                 0.2692
 Red. Mass:      15.2486                17.3324                16.9161
 IR Intens:        0.000                  0.000                  0.000
 Frequency:       188.97                 255.02                 411.03
 Force Cnst:      0.3538                 0.6308                 1.2681
 Red. Mass:      16.8146                16.4624                12.7398
 IR Intens:        0.000                  0.000                  0.000
 Frequency:       426.58                 430.76                 444.76
 Force Cnst:      1.5358                 1.4374                 1.5157
 Red. Mass:      14.3241                13.1478                13.0052
 IR Intens:        0.000                  0.000                  0.000
 Frequency:       465.95                 502.12                 523.71
 Force Cnst:      1.8832                 2.1152                 2.0925
 Red. Mass:      14.7221                14.2393                12.9487
 IR Intens:        0.000                  0.000                  0.000
 Frequency:       555.98                 579.44                 588.90
 Force Cnst:      2.4231                 2.9857                 2.9203
 Red. Mass:      13.3047                15.0934                14.2920
 IR Intens:        0.000                  0.000                  0.000
 Frequency:       628.82                 648.03                 700.30
 Force Cnst:      3.1138                 3.6078                 4.2658
 Red. Mass:      13.3658                14.5812                14.7634
 IR Intens:        0.000                  0.000                  0.000
 Frequency:       704.23                 803.27                1723.10
 Force Cnst:      4.3436                 5.5880                23.2760
 Red. Mass:      14.8652                14.6989                13.3057
 IR Intens:        0.000                  0.000                  0.000
 Frequency:      1930.86                2059.92                2111.42
 Force Cnst:     29.2486                33.3217                34.7522
 Red. Mass:      13.3154                13.3284                13.2307
 IR Intens:        0.000                  0.000                  0.000

 STANDARD THERMODYNAMIC QUANTITIES AT   298.15 K  AND     1.00 ATM

   This Molecule has  1 Imaginary Frequencies
   Zero point vibrational energy:       24.703 kcal/mol

   Atom    1 Element Fe Has Mass   55.93490
   Atom    2 Element C  Has Mass   12.00000
   Atom    3 Element C  Has Mass   12.00000
   Atom    4 Element C  Has Mass   12.00000
   Atom    5 Element C  Has Mass   12.00000
   Atom    6 Element C  Has Mass   12.00000
   Atom    7 Element O  Has Mass   15.99491
   Atom    8 Element O  Has Mass   15.99491
   Atom    9 Element O  Has Mass   15.99491
   Atom   10 Element O  Has Mass   15.99491
   Atom   11 Element O  Has Mass   15.99491
   Molecular Mass:   195.909450 amu
   Principal axes and moments of inertia in amu*Bohr^2:
                             1           2           3
    Eigenvalues --     1948.27133  2240.83757  2319.70127
          X               0.64365     0.76397    -0.04546
          Y               0.71864    -0.58290     0.37918
          Z              -0.26319     0.27673     0.92421
   Rotational Symmetry Number is   1
   The Molecule is an Asymmetric Top
   Translational Enthalpy:        0.889 kcal/mol
   Rotational Enthalpy:           0.889 kcal/mol
   Vibrational Enthalpy:         29.397 kcal/mol
   gas constant (RT):             0.592 kcal/mol
   Translational Entropy:        41.722  cal/mol.K
   Rotational Entropy:           30.694  cal/mol.K
   Vibrational Entropy:          28.590  cal/mol.K

   Total Enthalpy:               31.767 kcal/mol
   Total Entropy:               101.006  cal/mol.K

 Total job time:  120.83s(wall), 238.31s(cpu)
        *  Thank you very much for using Q-Chem.  Have a nice day.  *
