 Q-Chem 5.4 (devel), Q-Chem, Inc., Pleasanton, CA (2021)
 Q-Chem 5.4.1 for Intel X86 EM64T Linux

User input:
--------------------------------------------------------------
$molecule
0   1
 Fe -635.18608904 -47.37627197 -27.93206410    -1  0   0   0   0
C -634.70920994 -50.72540725 -28.00743847    -2  0   0   0   0
C -635.39664982 -43.97159485 -27.68832215    -2  0   0   0   0
C -635.40569457 -47.25912091 -31.21310823    -2  0   0   0   0
C -638.03341334 -47.86781810 -26.39502025    -2  0   0   0   0
C -631.77680905 -46.94331775 -26.78347514    -2  0   0   0   0
O -634.22776798 -52.91665049 -28.09409037    -3  0   0   0   0
O -635.45601307 -41.82835415 -27.54472459    -3  0   0   0   0
O -635.29998625 -47.17857126 -33.46382140    -3  0   0   0   0
O -639.94442967 -48.52819380 -25.14094044    -3  0   0   0   0
O -629.80013926 -46.42365858 -26.40583681    -3  0   0   0   0
H -639.66736164 -64.70648631 -49.33714130      6     13    0    0    0
C -639.46166850 -66.77317254 -48.88711262     1     12    14    15    16
H -639.03355429 -67.80362753 -50.58754174     6     13    0    0    0
H -637.81905990 -66.77403973 -47.66049380     6     13    0    0    0
C -641.95040204 -67.75018880 -47.81878172     2     13    17    18    19
H -643.36386574 -67.49347193 -49.45724107     6     16    0    0    0
H -641.80971859 -69.77273349 -47.35943987     6     16    0    0    0
C -642.99485066 -66.54121336 -45.57073078     2     16    20   21   22
H -641.37692418 -65.97141596 -44.32711307     6     19    0    0    0
H -643.47577262 -64.63233061 -46.15058900     6     19    0    0    0
C -645.08308455 -68.01757281 -44.25082910     2     19   23   24   25
H -646.64318800 -68.45443060 -45.65420086     6    22    0    0    0
H -644.03186821 -69.68024635 -43.51235643     6    22    0    0    0
C -646.13236075 -66.36220362 -42.11299804     2    22   26   27   28
H -644.52755984 -65.75981610 -41.01193254     6    25    0    0    0
H -647.21356836 -64.78141551 -42.77738553     6    25    0    0    0
C -647.73262516 -67.80042920 -40.15413049     2    25   29   30   31
H -649.68067922 -67.77880779 -40.94767350     6    28    0    0    0
H -647.00419876 -69.73882156 -39.91331858     6    28    0    0    0
C -647.88083223 -66.35975288 -37.69014284     2    28   32   33   34
H -645.93555316 -66.10313476 -37.02366876     6    31    0    0    0
H -648.80604829 -64.59583533 -37.91501992     6    31    0    0    0
C -649.46030482 -67.60376183 -35.67642452     2    31   35   36   37
H -651.25416549 -67.96281772 -36.69056815     6    34    0    0    0
H -648.75455677 -69.38384060 -34.99367273     6    34    0    0    0
C -650.24629693 -65.85392643 -33.47326208     2    34   38   39   40
H -648.58905554 -64.80738809 -32.70016317     6    37    0    0    0
H -651.18348272 -64.36366176 -34.44192149     6    37    0    0    0
C -651.76344287 -67.28739511 -31.25831650     2    37   41   42   43
H -653.55768257 -68.02143418 -32.03157045     6    40    0    0    0
H -650.54137970 -68.89773549 -30.71440519     6    40    0    0    0
C -652.39930707 -65.74000067 -28.81946779     2    40   44   45   46
H -650.62828539 -64.72738162 -28.52033246     6    43    0    0    0
H -653.67105423 -64.26707902 -29.11844517     6    43    0    0    0
C -653.47905792 -67.29508138 -26.58877067     1    43   47   48   49
H -655.49099830 -67.72598532 -27.01262815     6    46    0    0    0
H -653.44126110 -66.11228270 -24.80582631     6    46    0    0    0
H -652.50137562 -69.10466179 -26.08740732     6    46    0    0    0
H -637.34510632 -55.56173127 -24.82565469     6     51    0    0    0
C -639.49349708 -56.01073837 -24.67123491     1     50    52    53    54
H -639.74998893 -56.99480525 -22.91673374     6     51    0    0    0
H -640.43274416 -54.18881977 -24.56579368     6     51    0    0    0
C -640.80704589 -57.74167198 -26.68890218     2     51    55    56    57
H -640.42408655 -56.77694877 -28.32619723     6     54    0    0    0
H -640.03751418 -59.63113821 -27.23750703     6     54    0    0    0
C -643.70381899 -57.96899590 -26.22685448     2     54    58   59   60
H -644.51806731 -56.22450036 -25.87094256     6     57    0    0    0
H -644.61130034 -58.61580300 -28.07521488     6     57    0    0    0
C -644.42703891 -59.83634510 -24.21623455     2     57   61   62   63
H -643.45901447 -61.68638987 -24.40732427     6    60    0    0    0
H -644.09565585 -58.98405350 -22.37002759     6    60    0    0    0
C -647.40903616 -60.16189180 -24.03967382     2    60   64   65   66
H -648.47338930 -58.43564995 -23.77020310     6    63    0    0    0
H -648.04679113 -60.84918422 -25.82057688     6    63    0    0    0
C -648.38023320 -62.13847338 -22.06821535     2    63   67   68   69
H -650.34137163 -62.80694322 -22.40157903     6    66    0    0    0
H -647.40884225 -63.90911348 -22.17915837     6    66    0    0    0
C -648.17303292 -61.01869731 -19.33558872     2    66   70   71   72
H -646.14048332 -60.56708742 -18.90362401     6    69    0    0    0
H -649.50841352 -59.44384723 -19.06552044     6    69    0    0    0
C -649.41398023 -62.88328652 -17.45150406     2    69   73   74   75
H -651.32568063 -63.36382040 -18.25633560     6    72    0    0    0
H -648.53592545 -64.74538148 -17.62205378     6    72    0    0    0
C -649.18640752 -62.10424969 -14.66915099     2    72   76   77   78
H -647.27165900 -61.58663440 -14.20706910     6    75    0    0    0
H -650.47864158 -60.69465302 -14.23061811     6    75    0    0    0
C -649.85032558 -64.51062617 -12.99713504     2    75   79   80   81
H -651.90110580 -65.00030435 -13.38366156     6    78    0    0    0
H -648.73777457 -66.15101077 -13.58613739     6    78    0    0    0
C -649.34104250 -64.02607272 -10.18425298     2    78   82   83   84
H -647.25987996 -63.91475158 -9.85150078     6    81    0    0    0
H -650.10164249 -62.17455637 -9.79593644     6    81    0    0    0
C -650.41003083 -66.14204195 -8.50316537     1    81   85   86   87
H -649.71779463 -65.57276046 -6.68517237     6    84    0    0    0
H -649.94058100 -68.09729212 -8.78551595     6    84    0    0    0
H -652.48936989 -66.16554142 -8.47092620     6    84    0    0    0
H -657.91459389 -43.03731477 -46.11060850     6     89    0    0    0
C -659.17815748 -44.68401634 -46.06089427     1     88    90    91    92
H -659.02351622 -45.55396548 -44.26224313     6     89    0    0    0
H -661.14054430 -44.02814867 -46.17787267     6     89    0    0    0
C -658.75682063 -46.59814622 -48.07739976     2     89    93    94    95
H -659.05607936 -45.85371590 -49.93655878     6     92    0    0    0
H -656.79191254 -47.03303433 -48.09967035     6     92    0    0    0
C -660.31860370 -48.95212672 -47.53372981     2     92    96   97   98
H -659.39210016 -49.96423760 -45.95163478     6     95    0    0    0
H -662.27612779 -48.65049663 -46.96754053     6     95    0    0    0
C -660.74840198 -50.76867147 -49.81982180     2     95   99   100   101
H -662.11602823 -49.70861614 -50.97090350     6    98    0    0    0
H -659.03355206 -51.07092207 -51.01999254     6    98    0    0    0
C -662.17871943 -53.28746121 -49.24591560     2    98   102   103   104
H -664.00625728 -52.76359381 -48.49429387     6    101    0    0    0
H -662.74415699 -54.22521800 -50.95290117     6    101    0    0    0
C -660.62811435 -55.22990581 -47.53545000     2    101   105   106   107
H -659.08110868 -55.94685436 -48.81668069     6    104    0    0    0
H -659.92228756 -54.24209706 -46.01413267     6    104    0    0    0
C -662.47983537 -57.46012277 -46.89647040     2    104   108   109   110
H -664.16619641 -56.79251382 -45.91063473     6    107    0    0    0
H -663.05977643 -58.36342847 -48.59734152     6    107    0    0    0
C -660.92862194 -59.40049882 -45.40424490     2    107   111   112   113
H -659.27383295 -60.04880203 -46.41317731     6    110    0    0    0
H -660.34747985 -58.49638541 -43.60374765     6    110    0    0    0
C -662.59958976 -61.67193529 -44.81354457     2    110   114   115   116
H -664.28201542 -60.90521709 -43.80783080     6    113    0    0    0
H -663.23449106 -62.53680047 -46.67970218     6    113    0    0    0
C -661.42893888 -63.68458818 -43.18198878     2    113   117   118   119
H -660.26269402 -64.96729280 -44.23270055     6    116    0    0    0
H -660.19754575 -62.95115974 -41.72752419     6    116    0    0    0
C -663.46092593 -65.43012545 -41.99817238     2    116   120   121   122
H -664.44486749 -64.46658250 -40.46024392     6    119    0    0    0
H -664.89862346 -66.10341512 -43.32187681     6    119    0    0    0
C -662.54241496 -67.66516096 -40.38280373     1    119   123   124   125
H -663.80164758 -68.65311601 -39.15638037     6    122    0    0    0
H -661.22868982 -66.99254325 -38.87259200     6    122    0    0    0
H -661.49490661 -69.14884896 -41.42850552     6    122    0    0    0
H -653.58578912 -42.83157626 -49.07128299     6     127    0    0    0
C -652.35524185 -41.29413803 -48.69200739     1     126    128    129    130
H -652.62902129 -39.73695021 -49.91591741     6     127    0    0    0
H -652.65645202 -40.56110224 -46.65972517     6     127    0    0    0
C -649.69709096 -42.31437058 -48.91803107     2     127    131    132    133
H -649.43918515 -44.03672079 -47.97068710     6     130    0    0    0
H -649.51747203 -43.05991030 -50.72706462     6     130    0    0    0
C -647.74994202 -40.25273132 -48.14897039     2     130    134   135   136
H -647.22312313 -39.30435810 -49.96985189     6     133    0    0    0
H -648.78978431 -39.01036887 -46.81284530     6     133    0    0    0
C -645.34228558 -41.26404216 -46.83345448     2     133   137   138   139
H -645.97057748 -42.39919698 -45.33153868     6    136    0    0    0
H -644.35220924 -42.57597929 -48.05236417     6    136    0    0    0
C -643.48704171 -39.19752275 -45.83154608     2    136   140   141   142
H -642.98885721 -38.06095988 -47.51038486     6    139    0    0    0
H -644.93777812 -38.02899670 -44.76075968     6    139    0    0    0
C -641.24171332 -40.21263327 -44.26929329     2    139   143   144   145
H -641.68290912 -41.34175288 -42.66371936     6    142    0    0    0
H -640.06973065 -41.33991242 -45.52739107     6    142    0    0    0
C -639.59422272 -37.84001524 -43.53533358     2    142   146   147   148
H -639.45704531 -36.66392915 -45.06837601     6    145    0    0    0
H -640.32454403 -36.47319038 -42.13398860     6    145    0    0    0
C -636.75602975 -38.38514051 -42.89233379     2    145   149   150   151
H -636.67655316 -40.11073356 -41.78741303     6    148    0    0    0
H -635.74102816 -38.95481802 -44.55713205     6    148    0    0    0
C -635.55295329 -36.10005099 -41.55168660     2    148   152   153   154
H -635.80052874 -34.47351008 -42.84083808     6    151    0    0    0
H -636.43319036 -35.57544752 -39.69694250     6    151    0    0    0
C -632.75553943 -36.49556050 -41.00001695     2    151   155   156   157
H -632.25297142 -34.85804112 -39.80446068     6    154    0    0    0
H -632.32614988 -38.25990676 -39.90590064     6    154    0    0    0
C -631.02478884 -36.39414685 -43.33098289     2    154   158   159   160
H -631.86807820 -37.04286144 -45.06829777     6    157    0    0    0
H -631.04705475 -34.37679498 -43.67169006     6    157    0    0    0
C -628.29995425 -37.24739780 -42.96890737     1    157   161   162   163
H -627.20585015 -35.89914753 -42.06053254     6    160    0    0    0
H -627.34249693 -37.34776193 -44.84894725     6    160    0    0    0
H -628.11559801 -39.05734157 -41.87611440     6    160    0    0    0
H -661.89077776 -39.39367083 -44.08952673     6     165    0    0    0
C -662.35365059 -38.41074038 -42.33949234     1     164    166    167    168
H -664.37035230 -38.00101096 -42.41839171     6     165    0    0    0
H -661.78387951 -39.55266665 -40.71502027     6     165    0    0    0
C -660.82642540 -35.90436735 -42.25927625     2     165    169    170    171
H -658.72734073 -36.15729708 -42.53843124     6     168    0    0    0
H -661.46527207 -34.90715748 -43.92791153     6     168    0    0    0
C -661.29860786 -34.25685695 -39.93954319     2     168    172   173   174
H -663.26724703 -33.43565844 -40.07794478     6     171    0    0    0
H -661.35377240 -35.24777953 -38.16078055     6     171    0    0    0
C -659.13823113 -32.24281513 -39.54514666     2     171   175   176   177
H -657.43009730 -33.24650289 -39.46420899     6    174    0    0    0
H -658.96511110 -31.03161123 -41.14381732     6    174    0    0    0
C -659.52729619 -30.48134631 -37.27217689     2    174   178   179   180
H -661.50645015 -29.64951314 -37.43757231     6    177    0    0    0
H -659.59786348 -31.62568311 -35.52917899     6    177    0    0    0
C -657.68297180 -28.18584357 -37.08265894     2    177   181   182   183
H -655.81163407 -28.94586825 -37.18406176     6    180    0    0    0
H -658.30912776 -27.03521310 -38.51886732     6    180    0    0    0
C -657.92507146 -26.48870781 -34.69328776     2    180   184   185   186
H -659.93003762 -26.00959856 -34.51401877     6    183    0    0    0
H -657.49189860 -27.42472005 -32.88571785     6    183    0    0    0
C -656.44549740 -24.00302817 -34.92724285     2    183   187   188   189
H -654.52587027 -24.36075593 -34.86779909     6    186    0    0    0
H -656.99368831 -23.07402812 -36.71176790     6    186    0    0    0
C -657.08542334 -22.46079791 -32.55169966     2    186   190   191   192
H -659.09527288 -22.04655344 -32.20188352     6    189    0    0    0
H -656.48700362 -23.40744720 -30.88879554     6    189    0    0    0
C -655.60722639 -20.04937584 -32.55067761     2    189   193   194   195
H -653.64854110 -20.46288902 -32.90752947     6    192    0    0    0
H -656.26892755 -18.91312676 -34.14785918     6    192    0    0    0
C -655.97183643 -18.37031811 -30.29080801     2    192   196   197   198
H -657.83605145 -18.34830453 -29.50953563     6    195    0    0    0
H -654.58051996 -19.13879368 -28.93137529     6    195    0    0    0
C -655.18321130 -15.65289288 -30.75183222     1    195   199   200   201
H -654.44532314 -14.87815932 -28.96920429     6    198    0    0    0
H -656.81847409 -14.64877224 -31.27449712     6    198    0    0    0
H -653.49445678 -15.36614060 -32.13653616     6    198    0    0    0
H -661.74657406 -40.96371682 -19.06347142     6     203    0    0    0
C -661.81530760 -40.04870191 -20.95354384     1     202    204    205    206
H -660.45213918 -41.12898935 -21.86587243     6     203    0    0    0
H -663.67274100 -40.13352002 -21.72543652     6     203    0    0    0
C -660.77508070 -37.34353093 -21.12446208     2     203    207    208    209
H -658.80826086 -37.47550654 -20.50563372     6     206    0    0    0
H -660.69269139 -36.59865401 -22.95954677     6     206    0    0    0
C -662.29432237 -35.49365121 -19.49119392     2     206    210   211   212
H -661.52960017 -33.66054437 -19.88691499     6     209    0    0    0
H -664.19263429 -35.22380585 -20.17013764     6     209    0    0    0
C -662.40676616 -36.03949894 -16.67142537     2     209   213   214   215
H -663.30750046 -37.79323160 -16.20415949     6    212    0    0    0
H -660.53613957 -36.31322759 -15.86063650     6    212    0    0    0
C -663.72946642 -33.92875706 -14.86032193     2    212   216   217   218
H -662.81748390 -32.13372107 -15.23362279     6    215    0    0    0
H -665.72707745 -33.73444320 -15.19334566     6    215    0    0    0
C -663.39675559 -34.59380756 -12.08973286     2    215   219   220   221
H -664.61608566 -36.14102289 -11.62603998     6    218    0    0    0
H -661.40116215 -34.99092086 -11.85681917     6    218    0    0    0
C -664.07316811 -32.23919748 -10.47916848     2    218   222   223   224
H -662.94473413 -30.69482619 -10.98404837     6    221    0    0    0
H -665.90814032 -31.55519045 -10.92097332     6    221    0    0    0
C -663.95598449 -32.73100350 -7.64963482     2    221   225   226   227
H -665.12274170 -34.34247809 -7.35745316     6    224    0    0    0
H -662.14530285 -33.13739001 -6.85289826     6    224    0    0    0
C -664.84174103 -30.42326689 -6.15610887     2    224   228   229   230
H -663.60784122 -28.71045917 -6.32273301     6    227    0    0    0
H -666.69774166 -29.99309076 -6.74278569     6    227    0    0    0
C -665.22166199 -31.14993515 -3.24986659     2    227   231   232   233
H -667.08941534 -32.08989236 -3.23284233     6    230    0    0    0
H -664.01978220 -32.56799494 -2.64286801     6    230    0    0    0
C -665.62744397 -28.84769863 -1.64445747     2    230   234   235   236
H -664.05280724 -27.44174519 -1.95620382     6    233    0    0    0
H -667.19377171 -27.80110422 -2.32328678     6    233    0    0    0
C -665.96640280 -29.19581784 1.15314344     1    233   237   238   239
H -666.02552949 -27.25481792 2.06435212     6    236    0    0    0
H -664.43960005 -30.31521793 1.98620691     6    236    0    0    0
H -667.77671290 -30.06398751 1.78367655     6    236    0    0    0
H -664.61115261 -58.54259062 -17.86267725     6     241    0    0    0
C -665.59151081 -60.22071986 -18.49597960     1     240    242    243    244
H -667.55964641 -60.30265383 -17.69301461     6     241    0    0    0
H -665.42255035 -60.02519363 -20.57518321     6     241    0    0    0
C -664.06423898 -62.50416638 -17.66946159     2     241    245    246    247
H -663.91251219 -62.52535382 -15.53741685     6     244    0    0    0
H -665.12388994 -64.28396329 -17.88456198     6     244    0    0    0
C -661.60230739 -62.81178426 -19.30608654     2     244    248   249   250
H -661.96290968 -63.87775346 -21.02446856     6     247    0    0    0
H -660.88914874 -60.96742725 -20.02903900     6     247    0    0    0
C -659.28211716 -64.07052633 -18.20720943     2     247   251   252   253
H -657.86013559 -64.18981778 -19.61950892     6    250    0    0    0
H -658.24910273 -62.67251675 -16.91738433     6    250    0    0    0
C -659.73066087 -66.70564200 -16.91414315     2    250   254   255   256
H -661.40513023 -66.85764290 -15.64223880     6    253    0    0    0
H -660.13332632 -68.26024808 -18.29687142     6    253    0    0    0
C -657.44182875 -67.97633781 -15.59959570     2    253   257   258   259
H -655.89776118 -67.91468279 -16.92935132     6    256    0    0    0
H -656.98789525 -66.70205362 -14.05417366     6    256    0    0    0
C -657.86191847 -70.65901419 -14.61938445     2    256   260   261   262
H -659.84455128 -70.91084239 -14.01286833     6    259    0    0    0
H -657.84452609 -71.77856025 -16.25400821     6    259    0    0    0
C -656.23606103 -71.57373913 -12.42183830     2    259   263   264   265
H -654.21973581 -70.99296983 -12.71715353     6    262    0    0    0
H -656.55168030 -70.50847251 -10.47762390     6    262    0    0    0
C -655.97708514 -74.32314045 -12.31910476     2    262   266   267   268
H -657.78316568 -75.23246072 -12.13277628     6    265    0    0    0
H -655.00643928 -74.94827347 -13.98309017     6    265    0    0    0
C -654.54123074 -75.09271140 -10.05085448     2    265   269   270   271
H -652.60699003 -74.30740046 -10.19705808     6    268    0    0    0
H -655.43677073 -74.35914267 -8.28186147     6    268    0    0    0
C -654.54657993 -78.09286722 -9.99813216     2    268   272   273   274
H -656.11234191 -78.71089858 -9.01631968     6    271    0    0    0
H -654.78324931 -78.92772245 -11.95840556     6    271    0    0    0
C -652.21461373 -79.25428721 -8.95940733     1    271   275   276   277
H -650.41968108 -78.45958098 -9.78263662     6    274    0    0    0
H -652.15346989 -81.18130188 -9.36178648     6    274    0    0    0
H -652.12120005 -79.11066197 -6.88735225     6    274    0    0    0
H -663.70508259 -46.19147845 -26.50852472     6     279    0    0    0
C -664.49960777 -47.74931914 -25.30865517     1     278    280    281    282
H -666.54995477 -47.51191036 -25.43772080     6     279    0    0    0
H -663.89868660 -49.54506411 -26.09630627     6     279    0    0    0
C -663.58727469 -47.39633167 -22.67563290     2     279    283    284    285
H -661.53766890 -47.50813614 -22.76335231     6     282    0    0    0
H -664.05513538 -45.44437633 -21.91427213     6     282    0    0    0
C -664.80408328 -49.23332921 -20.75268499     2     282    286   287   288
H -666.93890996 -49.09885933 -20.68759772     6     285    0    0    0
H -664.62985415 -51.19714194 -21.30092284     6     285    0    0    0
C -663.66147648 -48.81009540 -18.08383337     2     285   289   290   291
H -661.60120498 -49.20744342 -17.92949111     6    288    0    0    0
H -663.73380714 -46.78382480 -17.53226050     6    288    0    0    0
C -664.90127000 -50.29912596 -15.85621398     2    288   292   293   294
H -666.89762041 -49.76167902 -15.85007522     6    291    0    0    0
H -664.72490274 -52.28405422 -16.12937240     6    291    0    0    0
C -663.77616742 -49.87773511 -13.22384361     2    291   295   296   297
H -661.72572125 -50.16261030 -13.39725247     6    294    0    0    0
H -664.55948100 -48.00393127 -12.62647784     6    294    0    0    0
C -664.58319178 -51.81643523 -11.13084456     2    294   298   299   300

   18   -1830.4946419681      3.18E-09 Convergence criterion met
 Total energy in the final basis set = -1828.18905751
 Total job time:  15.96s(wall), 28.41s(cpu)
        *  Thank you very much for using Q-Chem.  Have a nice day.  *

User input: 2 of 2

                  Welcome to Q-Chem
     A Quantum Leap Into The Future Of Chemistry

 Q-Chem 5.4 (devel), Q-Chem, Inc., Pleasanton, CA (2021)

 E. Epifanovsky,  A. T. B. Gilbert,  Xintian Feng,  Joonho Lee,  Yuezhi Mao,
 N. Mardirossian,  P. Pokhilko,  A. White,  M. Wormit,  M. P. Coons,
 A. L. Dempwolff,  Zhengting Gan,  D. Hait,  P. R. Horn,  L. D. Jacobson,
 I. Kaliman,  J. Kussmann,  A. W. Lange,  Ka Un Lao,  D. S. Levine,  Jie Liu,
 S. C. McKenzie,  A. F. Morrison,  K. Nanda,  F. Plasser,  D. R. Rehn,
 M. L. Vidal,  Zhi-Qiang You,  Ying Zhu,  B. Alam,  B. Albrecht,
 A. Aldossary,  E. Alguire,  J. H. Andersen,  D. Barton,  K. Begam,  A. Behn,
 Y. A. Bernard,  E. J. Berquist,  H. Burton,  A. Carreras,  K. Carter-Fenk,
 R. Chakraborty,  A. D. Chien,  K. D. Closser,  V. Cofer-Shabica,
 S. Dasgupta,  Jia Deng,  M. de Wergifosse,  M. Diedenhofen,  Hainam Do,
 S. Ehlert,  Po-Tung Fang,  S. Fatehi,  Qingguo Feng,  T. Friedhoff,
 J. Gayvert,  Qinghui Ge,  G. Gidofalvi,  M. Goldey,  J. Gomes,
 C. Gonzalez-Espinoza,  S. Gulania,  A. Gunina,  M. W. D. Hanson-Heine,
 P. H. P. Harbach,  A. W. Hauser,  M. F. Herbst,  M. Hernandez Vera,
 M. Hodecker,  Z. C. Holden,  S. Houck,  Xunkun Huang,  Kerwin Hui,
 B. C. Huynh,  M. Ivanov,  Hyunjun Ji,  Hanjie Jiang,  B. Kaduk,  S. Kaehler,
 K. Khistyaev,  Jaehoon Kim,  P. Klunzinger,  Z. Koczor-Benda,
 Joong Hoon Koh,  D. Kosenkov,  L. Koulias,  T. Kowalczyk,  C. M. Krauter,
 K. Kue,  A. Kunitsa,  T. Kus,  A. Landau,  K. V. Lawler,  D. Lefrancois,
 S. Lehtola,  Rain Li,  Yi-Pei Li,  Jiashu Liang,  M. Liebenthal,
 Hung-Hsuan Lin,  You-Sheng Lin,  Fenglai Liu,  Kuan-Yu Liu,
 M. Loipersberger,  A. Luenser,  A. Manjanath,  P. Manohar,  E. Mansoor,
 S. F. Manzer,  Shan-Ping Mao,  A. V. Marenich,  T. Markovich,  S. Mason,
 S. A. Maurer,  P. F. McLaughlin,  M. F. S. J. Menger,  J.-M. Mewes,
 S. A. Mewes,  P. Morgante,  J. W. Mullinax,  K. J. Oosterbaan,  G. Paran,
 Alexander C. Paul,  Suranjan K. Paul,  F. Pavosevic,  Zheng Pei,  S. Prager,
 E. I. Proynov,  E. Ramos,  B. Rana,  A. E. Rask,  A. Rettig,  R. M. Richard,
 F. Rob,  E. Rossomme,  T. Scheele,  M. Scheurer,  M. Schneider,
 N. Sergueev,  S. M. Sharada,  W. Skomorowski,  D. W. Small,  C. J. Stein,
 Yu-Chuan Su,  E. J. Sundstrom,  Zhen Tao,  J. Thirman,  T. Tsuchimochi,
 N. M. Tubman,  S. P. Veccham,  O. Vydrov,  J. Wenzel,  J. Witte,  A. Yamada,
 Kun Yao,  S. Yeganeh,  S. R. Yost,  A. Zech,  Igor Ying Zhang,  Xing Zhang,
 Yu Zhang,  D. Zuev,  A. Aspuru-Guzik,  A. T. Bell,  N. A. Besley,
 K. B. Bravaya,  B. R. Brooks,  D. Casanova,  Jeng-Da Chai,  S. Coriani,
 C. J. Cramer,  A. E. DePrince, III,  R. A. DiStasio Jr.,  A. Dreuw,
 B. D. Dunietz,  T. R. Furlani,  W. A. Goddard III,  S. Grimme,
 S. Hammes-Schiffer,  T. Head-Gordon,  W. J. Hehre,  Chao-Ping Hsu,
 T.-C. Jagau,  Yousung Jung,  A. Klamt,  Jing Kong,  D. S. Lambrecht,
 WanZhen Liang,  N. J. Mayhall,  C. W. McCurdy,  J. B. Neaton,
 C. Ochsenfeld,  J. A. Parkhill,  R. Peverati,  V. A. Rassolov,  Yihan Shao,
 L. V. Slipchenko,  T. Stauch,  R. P. Steele,  J. E. Subotnik,
 A. J. W. Thom,  A. Tkatchenko,  D. G. Truhlar,  T. Van Voorhis,
 T. A. Wesolowski,  K. B. Whaley,  H. L. Woodcock III,  P. M. Zimmerman,
 S. Faraji,  P. M. W. Gill,  M. Head-Gordon,  J. M. Herbert,  A. I. Krylov

 Additional authors for Version 5.4.1:
 S. Kotaru,  Shaozhi Li,  Xiangyuan Li,  F. Matz,  A. Molle,  Haisheng Ren,
 Yingli Su,  Hung-Yi Tsai,  C. Utku,  Fang Wang

 Contributors to earlier versions of Q-Chem not listed above:
 R. D. Adamson,  B. Austin,  R. Baer,  J. Baker,  G. J. O. Beran,
 K. Brandhorst,  S. T. Brown,  E. F. C. Byrd,  A. K. Chakraborty,
 G. K. L. Chan,  Chun-Min Chang,  Yunqing Chen,  C.-L. Cheng,
 Siu Hung Chien,  D. M. Chipman,  D. L. Crittenden,  H. Dachsel,
 R. J. Doerksen,  A. D. Dutoi,  R. G. Edgar,  J. Fosso-Tande,
 L. Fusti-Molnar,  D. Ghosh,  A. Ghysels,  A. Golubeva-Zadorozhnaya,
 J. Gonthier,  M. S. Gordon,  S. R. Gwaltney,  G. Hawkins,  J. E. Herr,
 A. Heyden,  S. Hirata,  E. G. Hohenstein,  G. Kedziora,  F. J. Keil,
 C. Kelley,  Jihan Kim,  R. A. King,  R. Z. Khaliullin,  P. P. Korambath,
 W. Kurlancheek,  A. Laurent,  A. M. Lee,  M. S. Lee,  S. V. Levchenko,
 Ching Yeh Lin,  D. Liotard,  E. Livshits,  R. C. Lochan,  I. Lotan,
 L. A. Martinez-Martinez,  P. E. Maslen,  N. Nair,  D. P. O'Neill,
 D. Neuhauser,  E. Neuscamman,  C. M. Oana,  R. Olivares-Amaya,  R. Olson,
 T. M. Perrine,  B. Peters,  P. A. Pieniazek,  A. Prociuk,  Y. M. Rhee,
 J. Ritchie,  M. A. Rohrdanz,  E. Rosta,  N. J. Russ,  H. F. Schaefer III,
 M. W. Schmidt,  N. E. Schultz,  S. Sharma,  N. Shenvi,  C. D. Sherrill,
 A. C. Simmonett,  A. Sodt,  T. Stein,  D. Stuck,  K. S. Thanthiriwatte,
 V. Vanovschi,  L. Vogt,  Tao Wang,  A. Warshel,  M. A. Watson,
 C. F. Williams,  Q. Wu,  X. Xu,  Jun Yang,  W. Zhang,  Yan Zhao

 Please cite Q-Chem as follows:
 Y. Shao et al., Mol. Phys. 113, 184-215 (2015)
 DOI: 10.1080/00268976.2014.952696

 Q-Chem 5.4.1 for Intel X86 EM64T Linux

 Parts of Q-Chem use Armadillo 9.900.5 (Nocturnal Misbehaviour).
 http://arma.sourceforge.net/

 Q-Chem begins on Wed Jun 22 08:05:41 2022

 Host: p09r16n04.grace.hpc.yale.internal
0

     Scratch files written to /home/tl686/scratch60/qchem_dev/scratch/qchem69310//
 Processing $rem in /home/tl686/qchem_dev/qchem/config/preferences:
 Processing $rem in /home/tl686/.qchemrc:
Applying user defined connections for MM calculations
The previous job contains 0 fragments, simply inherited here

 Checking the input file for inconsistencies... 	...done.

--------------------------------------------------------------
User input:
--------------------------------------------------------------

$molecule
READ
$end

$qm_atoms
1:11
$end

$force_field_params
NumAtomTypes 3
AtomType -1   0.0238     3.11   0.2868
AtomType -2   0.07124    3.30   0.6597
AtomType -3  -0.0760     3.09   0.1434
$end

$rem
     JOBTYPE  freq
     METHOD   bp86
     BASIS    def2-msvp
     MAX_SCF_CYCLES   800
     INPUT_BOHR TRUE
     SYM_IGNORE TRUE
     SCF_GUESS     read
     user_connect            true
     qm_mm_interface         ONIOM
     force_field             oplsaa
$end

--------------------------------------------------------------

    2   -1830.4946419689      3.75E-09 Convergence criterion met
 Total energy in the final basis set = -1828.18905751

                    Orbital Energies (a.u.)
 --------------------------------------------------------------

 Alpha MOs
 -- Occupied --
******** -29.6406 -25.5997 -25.5879 -25.5838 -18.9020 -18.8952 -18.8851
-18.8679 -18.8548 -10.0592 -10.0584 -10.0542 -10.0415 -10.0406  -3.3265
 -2.1612  -2.1387  -2.1305  -1.1088  -1.0825  -1.0447  -1.0261  -0.9799
 -0.5783  -0.5315  -0.5293  -0.5164  -0.5135  -0.4703  -0.4598  -0.4569
 -0.4465  -0.4440  -0.4312  -0.4265  -0.4202  -0.4155  -0.4066  -0.4014
 -0.3908  -0.3902  -0.3699  -0.3630  -0.2823  -0.2782  -0.2457  -0.2188

          Ground-State Mulliken Net Atomic Charges

     Atom                 Charge (a.u.)
  ----------------------------------------
      1 Fe                   -0.488611
      2 C                     0.215975
      3 C                     0.202843
      4 C                     0.243172
      5 C                     0.217016
      6 C                     0.210587
      7 O                    -0.131237
      8 O                    -0.080253
      9 O                    -0.148013
     10 O                    -0.206527
     11 O                    -0.034952
  ----------------------------------------
  Sum of atomic charges =     0.000000

                    Cartesian Multipole Moments
 -----------------------------------------------------------------
    Charge (ESU x 10^10)
                -0.0000
    Dipole Moment (Debye)
         X       1.4311761547      Y       0.7239882832      Z       0.1344605814
       Tot       1.6095042304
    Quadrupole Moments (Debye-Ang)
        XX   -1031.5032     XY    -279.9951     YY    -105.0314
        XZ     -63.6795     YZ     -13.4432     ZZ     -75.2763

 Frequency:      -372.50                -363.27                 -90.31
 Force Cnst:      1.1709                 1.1354                 0.0775
 Red. Mass:      14.3222                14.6026                16.1345
 IR Intens:        0.000                  0.000                  0.000
 Frequency:       -81.23                 108.96                 128.95
 Force Cnst:      0.0631                 0.1043                 0.1481
 Red. Mass:      16.2242                14.9079                15.1186
 IR Intens:        0.000                  0.000                  0.000
 Frequency:       163.96                 208.71                 267.95
 Force Cnst:      0.2576                 0.3788                 0.6055
 Red. Mass:      16.2650                14.7576                14.3149
 IR Intens:        0.000                  0.000                  0.000
 Frequency:       349.40                 393.17                 446.37
 Force Cnst:      1.0981                 1.1720                 1.5018
 Red. Mass:      15.2664                12.8680                12.7927
 IR Intens:        0.000                  0.000                  0.000
 Frequency:       454.91                 484.31                 522.26
 Force Cnst:      1.7145                 1.8134                 2.4428
 Red. Mass:      14.0610                13.1219                15.2005
 IR Intens:        0.000                  0.000                  0.000
 Frequency:       531.89                 549.78                 589.27
 Force Cnst:      2.1940                 3.0369                 2.8211
 Red. Mass:      13.1629                17.0535                13.7892
 IR Intens:        0.000                  0.000                  0.000
 Frequency:       610.06                 678.65                 681.62
 Force Cnst:      3.0837                 4.6478                 3.8946
 Red. Mass:      14.0629                17.1279                14.2276
 IR Intens:        0.000                  0.000                  0.000
 Frequency:       701.28                1489.15                1853.92
 Force Cnst:      4.8645                17.1174                26.8229
 Red. Mass:      16.7883                13.1011                13.2456
 IR Intens:        0.000                  0.000                  0.000
 Frequency:      1887.73                2232.54                2499.39
 Force Cnst:     27.8447                39.1596                49.3675
 Red. Mass:      13.2621                13.3349                13.4129
 IR Intens:        0.000                  0.000                  0.000

 STANDARD THERMODYNAMIC QUANTITIES AT   298.15 K  AND     1.00 ATM

   This Molecule has  4 Imaginary Frequencies
   Zero point vibrational energy:       25.495 kcal/mol

   Atom    1 Element Fe Has Mass   55.93490
   Atom    2 Element C  Has Mass   12.00000
   Atom    3 Element C  Has Mass   12.00000
   Atom    4 Element C  Has Mass   12.00000
   Atom    5 Element C  Has Mass   12.00000
   Atom    6 Element C  Has Mass   12.00000
   Atom    7 Element O  Has Mass   15.99491
   Atom    8 Element O  Has Mass   15.99491
   Atom    9 Element O  Has Mass   15.99491
   Atom   10 Element O  Has Mass   15.99491
   Atom   11 Element O  Has Mass   15.99491
   Molecular Mass:   195.909450 amu
   Principal axes and moments of inertia in amu*Bohr^2:
                             1           2           3
    Eigenvalues --     1886.31130  2124.22157  2397.29565
          X               0.27569     0.92522     0.26070
          Y               0.96098    -0.27169    -0.05201
          Z              -0.02271    -0.26487     0.96402
   Rotational Symmetry Number is   1
   The Molecule is an Asymmetric Top
   Translational Enthalpy:        0.889 kcal/mol
   Rotational Enthalpy:           0.889 kcal/mol
   Vibrational Enthalpy:         29.103 kcal/mol
   gas constant (RT):             0.592 kcal/mol
   Translational Entropy:        41.722  cal/mol.K
   Rotational Entropy:           30.641  cal/mol.K
   Vibrational Entropy:          20.477  cal/mol.K

   Total Enthalpy:               31.473 kcal/mol
   Total Entropy:                92.841  cal/mol.K

 Total job time:  126.68s(wall), 250.06s(cpu)
        *  Thank you very much for using Q-Chem.  Have a nice day.  *
