 Q-Chem 5.4 (devel), Q-Chem, Inc., Pleasanton, CA (2021)
 Q-Chem 5.4.1 for Intel X86 EM64T Linux

User input:
--------------------------------------------------------------
$molecule
0   1
 Fe -23.17661984 18.53510279 39.41391983    -1  0   0   0   0
C -22.06712951 15.38476192 40.07250213    -2  0   0   0   0
C -24.14065467 21.90989356 39.01603983    -2  0   0   0   0
C -23.47727729 18.96273986 42.76127327    -2  0   0   0   0
C -20.03913501 18.82231584 37.35695151    -2  0   0   0   0
C -25.75782465 17.41411170 37.60267050    -2  0   0   0   0
O -21.39387332 13.24495816 40.24308450    -3  0   0   0   0
O -24.78905427 24.04902397 39.02767802    -3  0   0   0   0
O -23.58079116 19.24305609 44.93210168    -3  0   0   0   0
O -18.17886213 19.23000142 36.35866488    -3  0   0   0   0
O -27.45540851 16.47133137 36.45114543    -3  0   0   0   0
H 3.31060084 3.61621213 44.99153464      6     13    0    0    0
C 2.07375637 2.26088155 46.10129460     1     12    14    15    16
H 3.24426148 1.02304108 47.03000241     6     13    0    0    0
H 1.02106636 3.19504267 47.53168641     6     13    0    0    0
C 0.38493654 0.82155007 44.25525623     2     13    17    18    19
H 1.75547912 0.03999414 42.82804958     6     16    0    0    0
H -0.39596007 -0.83756358 45.05344627     6     16    0    0    0
C -1.73520826 2.44628760 43.03086915     2     16    20   21   22
H -3.42420968 2.39434792 44.38736097     6     19    0    0    0
H -1.29106795 4.42490907 43.19963877     6     19    0    0    0
C -2.34542803 1.85698477 40.16552680     2     19   23   24   25
H -0.74275018 2.07631516 38.94985117     6    22    0    0    0
H -2.97668462 -0.13704802 39.99156101     6    22    0    0    0
C -4.53939572 3.57277784 39.18074265     2    22   26   27   28
H -6.15336341 3.12721757 40.24356795     6    25    0    0    0
H -4.19316910 5.62193584 39.44513067     6    25    0    0    0
C -5.00415941 3.15461646 36.37089407     2    25   29   30   31
H -3.22749388 3.66366405 35.38801492     6    28    0    0    0
H -5.43508259 1.21158792 36.05861652     6    28    0    0    0
C -7.02792551 4.91801489 35.27545086     2    28   32   33   34
H -8.71723118 4.67074072 36.36198216     6    31    0    0    0
H -6.41282523 6.82305124 35.75368336     6    31    0    0    0
C -7.49716790 4.75742066 32.45447220     2    31   35   36   37
H -6.00429887 5.72989034 31.58838183     6    34    0    0    0
H -7.09440483 2.90095317 31.56899095     6    34    0    0    0
C -10.09529063 5.75905677 31.62513036     2    34   38   39   40
H -11.44615768 4.65465287 32.67646643     6    37    0    0    0
H -10.56903705 7.73778652 32.23491614     6    37    0    0    0
C -10.63055568 5.52372491 28.82790249     2    37   41   42   43
H -9.39904858 6.89951203 27.77677602     6    40    0    0    0
H -10.04113150 3.60659249 28.32008235     6    40    0    0    0
C -13.39224255 6.10848799 28.27630910     2    40   44   45   46
H -14.62472010 4.76412220 29.32634113     6    43    0    0    0
H -13.88907250 7.87846204 29.14550218     6    43    0    0    0
C -14.16200669 6.15955895 25.49442610     1    43   47   48   49
H -12.93016694 7.30223139 24.41179902     6    46    0    0    0
H -16.03364549 7.01186883 25.40100794     6    46    0    0    0
H -14.36577533 4.30266938 24.82106582     6    46    0    0    0
H -21.74820678 11.47998164 31.90755279     6     51    0    0    0
C -21.05866607 11.76191659 33.82036329     1     50    52    53    54
H -21.43773403 13.72561565 34.58435783     6     51    0    0    0
H -22.17042925 10.41471514 35.05137105     6     51    0    0    0
C -18.28887878 11.07952416 33.61145765     2     51    55    56    57
H -17.62737997 11.29079315 35.58304772     6     54    0    0    0
H -17.86829486 9.16242664 33.20898043     6     54    0    0    0
C -16.87566978 12.72727334 31.71186637     2     54    58   59   60
H -16.93064654 14.76498187 32.22508781     6     57    0    0    0
H -14.81938883 12.19511483 31.81863378     6     57    0    0    0
C -17.57349322 12.42154766 28.99387009     2     57   61   62   63
H -17.82229751 10.46684148 28.51864321     6    60    0    0    0
H -19.50550484 13.16927308 28.64053188     6    60    0    0    0
C -15.77713676 13.53840278 26.90789675     2    60   64   65   66
H -15.91519814 15.57032524 27.02512971     6    63    0    0    0
H -13.76020575 12.79761006 27.31779184     6    63    0    0    0
C -16.29957941 12.95381661 24.06650749     2    63   67   68   69
H -14.99210674 14.01871230 22.93435874     6    66    0    0    0
H -15.58125412 11.12257949 23.55206986     6    66    0    0    0
C -19.06731068 12.77175128 23.20849679     2    66   70   71   72
H -20.15153524 11.63036704 24.55316024     6    69    0    0    0
H -19.81318731 14.69911681 23.42721812     6    69    0    0    0
C -19.38315185 11.53119694 20.55044621     2    69   73   74   75
H -18.76562232 13.02411804 19.23844272     6    72    0    0    0
H -18.17366314 9.85091036 20.37097075     6    72    0    0    0
C -22.02851196 10.77636284 20.04169989     2    72   76   77   78
H -22.45164016 9.28743685 21.41700864     6    75    0    0    0
H -23.28111673 12.18781029 20.80193515     6    75    0    0    0
C -22.42390082 9.80369640 17.16619217     2    75   79   80   81
H -22.56411538 11.35579408 15.70912212     6    78    0    0    0
H -20.80414838 8.83604389 16.55163958     6    78    0    0    0
C -24.86725141 8.27604589 16.65543991     2    78   82   83   84
H -24.45835652 6.27415624 17.49836851     6    81    0    0    0
H -26.35198969 9.01391765 17.83407106     6    81    0    0    0
C -25.74740915 8.26270180 13.92807519     1    81   85   86   87
H -27.32072909 6.93766175 13.50552720     6    84    0    0    0
H -24.23355133 8.07273012 12.54289414     6    84    0    0    0
H -26.66637498 10.01750754 13.57844190     6    84    0    0    0
H 10.33826196 13.11786841 31.21799108     6     89    0    0    0
C 10.26452223 13.00519172 29.18310942     1     88    90    91    92
H 10.98172132 14.86555670 28.73165366     6     89    0    0    0
H 11.60029455 11.42782698 28.75495912     6     89    0    0    0
C 7.46628010 12.67768380 28.36753844     2     89    93    94    95
H 7.08800140 10.76181407 29.04337215     6     92    0    0    0
H 5.97372500 13.80410247 29.13693568     6     92    0    0    0
C 7.34169323 12.82023792 25.49779255     2     92    96   97   98
H 7.64359414 14.84371394 24.82796826     6     95    0    0    0
H 8.86132634 11.57953140 24.60491202     6     95    0    0    0
C 4.79554269 11.90713843 24.59902985     2     95   99   100   101
H 4.25890019 10.10763306 25.33401549     6    98    0    0    0
H 3.34003078 13.10385848 25.56108910     6    98    0    0    0
C 4.21389765 12.15349305 21.71585291     2    98   102   103   104
H 2.86409814 13.62934110 21.89027045     6    101    0    0    0
H 5.70011721 12.88660260 20.68021810     6    101    0    0    0
C 3.14547407 9.79708824 20.47287511     2    101   105   106   107
H 4.71992562 8.40932674 20.31966028     6    104    0    0    0
H 1.59767872 9.04353156 21.48666978     6    104    0    0    0
C 2.56902525 10.17315021 17.74500530     2    104   108   109   110
H 2.38235514 12.18260706 17.43557572     6    107    0    0    0
H 4.24338301 9.76116377 16.60169118     6    107    0    0    0
C 0.15047513 8.99007066 16.80546542     2    107   111   112   113
H -0.41860908 7.34606561 17.94059216     6    110    0    0    0
H -1.40918337 10.51080359 17.19845838     6    110    0    0    0
C 0.53207230 8.03682933 14.19640814     2    110   114   115   116
H 0.50479813 9.74010840 13.02526343     6    113    0    0    0
H 2.41813476 7.17014359 13.98831425     6    113    0    0    0
C -1.34929892 5.95374428 13.36395109     2    113   117   118   119
H -0.77234545 4.22369284 14.46973775     6    116    0    0    0
H -3.34085113 6.31277521 13.75214796     6    116    0    0    0
C -0.88607247 5.20864618 10.58019318     2    116   120   121   122
H -2.11001694 3.56816018 10.21569147     6    119    0    0    0
H -1.53295149 6.89547617 9.56044628     6    119    0    0    0
C 1.80000346 4.52895051 9.74782767     1    119   123   124   125
H 2.08477040 4.35368189 7.68495973     6    122    0    0    0
H 2.17065448 2.79044591 10.47139941     6    122    0    0    0
H 3.22807250 5.72291757 10.47669437     6    122    0    0    0
H 2.37968691 32.67948158 40.01803077     6     127    0    0    0
C 3.81647139 32.17220144 41.45246734     1     126    128    129    130
H 5.51946352 31.13205258 40.71746467     6     127    0    0    0
H 4.58845903 33.88039504 42.14879987     6     127    0    0    0
C 2.38952833 30.56042376 43.55471597     2     127    131    132    133
H 1.35523557 29.03638920 42.51000639     6     130    0    0    0
H 4.01686985 30.01849271 44.53787609     6     130    0    0    0
C 0.73773485 31.98344936 45.35292812     2     130    134   135   136
H 1.77854524 33.39689480 46.52061471     6     133    0    0    0
H -0.69501882 32.93374412 44.19409933     6     133    0    0    0
C -0.87086349 30.24858927 46.97608101     2     133   137   138   139
H -1.57720718 28.63306021 45.82915648     6    136    0    0    0
H 0.26900081 29.39793416 48.59194820     6    136    0    0    0
C -3.31672786 31.51882268 48.06420812     2    136   140   141   142
H -2.58231415 33.09833312 48.94694091     6    139    0    0    0
H -4.68410988 32.03321779 46.63065447     6    139    0    0    0
C -4.60119724 29.78264834 49.99665628     2    139   143   144   145
H -5.23351889 28.00478351 49.05701976     6    142    0    0    0
H -3.24533120 29.22811827 51.45533966     6    142    0    0    0
C -6.87867477 30.95296921 51.32448631     2    142   146   147   148
H -6.37319089 32.84559942 51.87249224     6    145    0    0    0
H -8.37155039 31.15976908 49.92662189     6    145    0    0    0
C -7.99803526 29.24471822 53.42595127     2    145   149   150   151
H -8.37380778 27.37631048 52.58056036     6    148    0    0    0
H -6.56281162 28.82442617 54.90376466     6    148    0    0    0
C -10.40617987 30.35389771 54.54924590     2    148   152   153   154
H -9.85936956 32.22768984 55.37461281     6    151    0    0    0
H -11.79802404 30.82889764 53.07868862     6    151    0    0    0
C -12.11427260 29.10425910 56.52402349     2    151   155   156   157
H -13.92960891 30.00524135 56.53139423     6    154    0    0    0
H -12.74811171 27.38694528 55.82038908     6    154    0    0    0
C -10.80429217 28.70710934 59.09952400     2    154   158   159   160
H -9.43366723 27.25329730 58.94148435     6    157    0    0    0
H -9.58224225 30.41294775 59.34499704     6    157    0    0    0
C -12.64907081 28.50836017 61.38085906     1    157   161   162   163
H -11.68487440 28.59556680 63.22306819     6    160    0    0    0
H -13.62235978 26.79607311 61.75581362     6    160    0    0    0
H -13.84604387 30.17477955 61.35928952     6    160    0    0    0
H 2.15050967 48.17952737 34.69581490     6     165    0    0    0
C 3.20990988 46.84321000 35.93989816     1     164    166    167    168
H 3.01133212 44.76843907 35.59648442     6     165    0    0    0
H 5.28492514 47.22892958 35.76948330     6     165    0    0    0
C 2.50689098 47.06613261 38.72559276     2     165    169    170    171
H 2.92479352 48.87531917 39.39189459     6     168    0    0    0
H 0.40218232 46.78301969 38.83450586     6     168    0    0    0
C 3.99304282 45.00363341 40.38493685     2     168    172   173   174
H 4.02872312 43.01964296 39.65850496     6     171    0    0    0
H 5.89393306 45.35429518 40.31821037     6     171    0    0    0
C 3.00552707 45.00498891 43.06065153     2     171   175   176   177
H 3.58494430 46.62536097 44.24706062     6    174    0    0    0
H 0.96328663 45.05881839 42.82522473     6    174    0    0    0
C 3.56427866 42.35015162 44.27990209     2    174   178   179   180
H 2.59590258 40.93279296 43.29660233     6    177    0    0    0
H 5.66316707 41.81531846 44.27316845     6    177    0    0    0
C 2.73535721 42.26613666 46.98589875     2    177   181   182   183
H 3.26418297 43.70906748 48.15385527     6    180    0    0    0
H 0.75927394 42.50440148 46.64743703     6    180    0    0    0
C 3.52953386 39.66423063 48.19688502     2    180   184   185   186
H 3.00576866 37.98009487 47.13465983     6    183    0    0    0
H 5.65501497 39.45801744 48.41616167     6    183    0    0    0
C 2.28600028 39.27472722 50.77838023     2    183   187   188   189
H 2.55734301 40.71308666 52.40231471     6    186    0    0    0
H 0.31179028 39.32299920 50.40136438     6    186    0    0    0
C 3.01095678 36.83066913 51.98604576     2    186   190   191   192
H 2.37811654 35.23074862 50.98688849     6    189    0    0    0
H 5.02776004 37.02735303 51.89746772     6    189    0    0    0
C 2.19506581 36.55348986 54.82094012     2    189   193   194   195
H 3.13860017 38.04109254 56.15674720     6    192    0    0    0
H 0.15994986 36.90889829 54.89281849     6    192    0    0    0
C 2.46714239 33.85308992 55.76822574     2    192   196   197   198
H 1.65565011 32.67477617 54.44790958     6    195    0    0    0
H 4.42748775 33.32986144 55.93986524     6    195    0    0    0
C 1.44335925 33.74464228 58.49764839     1    195   199   200   201
H 2.28526136 32.22422051 59.76737443     6    198    0    0    0
H -0.60486143 33.72455643 58.61184326     6    198    0    0    0
H 2.08488446 35.52824853 59.32517724     6    198    0    0    0
H -12.73682630 29.14181767 22.91417892     6     203    0    0    0
C -11.18175515 30.35114253 23.37483095     1     202    204    205    206
H -12.07359568 32.16961848 23.70379611     6     203    0    0    0
H -10.04896113 29.86966906 25.07773371     6     203    0    0    0
C -9.21805618 30.53008189 21.18070983     2     203    207    208    209
H -7.83321857 31.89134360 21.70710553     6     206    0    0    0
H -8.25405134 28.82993042 20.81643254     6     206    0    0    0
C -10.39539456 31.53852054 18.77459108     2     206    210   211   212
H -8.95836959 31.32969108 17.40223479     6     209    0    0    0
H -12.06489406 30.62142371 18.07632223     6     209    0    0    0
C -11.04946336 34.42741396 18.74816159     2     209   213   214   215
H -12.34807846 35.09382477 20.21784713     6    212    0    0    0
H -9.54130621 35.72100128 18.98639392     6    212    0    0    0
C -12.04833813 35.36586261 16.27825915     2    212   216   217   218
H -10.34302882 35.41635761 14.99664120     6    215    0    0    0
H -13.22855279 33.96276613 15.36953444     6    215    0    0    0
C -13.51347427 37.97376576 16.12322041     2    215   219   220   221
H -15.18302268 37.94086617 17.26961838     6    218    0    0    0
H -12.50974805 39.54261096 17.01493125     6    218    0    0    0
C -13.99563460 38.70872886 13.36040054     2    218   222   223   224
H -12.24172399 39.90880057 12.81285919     6    221    0    0    0
H -13.71623241 37.13769593 11.92649140     6    221    0    0    0
C -16.47588136 40.19127633 13.09137231     2    221   225   226   227
H -18.15966371 39.05899265 13.47220798     6    224    0    0    0
H -16.81337949 41.69751129 14.47751268     6    224    0    0    0
C -16.69112436 40.95281447 10.23739342     2    224   228   229   230
H -15.19061426 42.41099665 9.80176488     6    227    0    0    0
H -16.46524561 39.37634895 8.92329411     6    227    0    0    0
C -19.18554759 42.21912671 9.62477527     2    227   231   232   233
H -20.78520170 40.97680544 9.87070467     6    230    0    0    0
H -19.64885822 43.83796829 11.00388365     6    230    0    0    0
C -19.03883408 43.49047259 6.91746673     2    230   234   235   236
H -17.29848308 44.69154639 6.64365225     6    233    0    0    0
H -18.92327050 42.05584219 5.44659949     6    233    0    0    0
C -21.34689523 45.16397753 6.20766475     1    233   237   238   239
H -22.00424070 45.00794430 4.32025625     6    236    0    0    0
H -20.90403360 47.13522597 6.70054695     6    236    0    0    0
H -22.97292059 44.67712159 7.43312106     6    236    0    0    0
H -10.62389019 5.55048221 19.85841896     6     241    0    0    0
C -10.73340257 6.70550087 18.24351466     1     240    242    243    244
H -11.17493949 8.66148977 18.80640303     6     241    0    0    0
H -8.78020456 7.06012851 17.48177044     6     241    0    0    0
C -12.61366259 5.69393167 16.09026976     2     241    245    246    247
H -14.50199304 5.79733864 16.98238090     6     244    0    0    0
H -12.70671133 7.17669005 14.61429457     6     244    0    0    0
C -12.05783781 3.01902773 15.25495101     2     244    248   249   250
H -10.24734263 2.94437205 14.18825865     6     247    0    0    0
H -11.84729322 1.73344965 16.92389498     6     247    0    0    0
C -14.04099178 2.10434551 13.45661562     2     247   251   252   253
H -13.57814169 0.19051843 12.80074479     6    250    0    0    0
H -15.73816885 1.92371619 14.74479713     6    250    0    0    0
C -14.32836661 3.68872278 11.02985255     2    250   254   255   256
H -14.62601631 5.68944195 11.46048221     6    253    0    0    0
H -12.50356679 3.64195401 9.96179396     6    253    0    0    0
C -16.40689647 2.62471594 9.30698888     2    253   257   258   259
H -16.18261533 3.69593045 7.61841610     6    256    0    0    0
H -16.40319791 0.60523677 9.07647771     6    256    0    0    0
C -19.10394853 3.17828732 10.26704163     2    256   260   261   262
H -19.32969691 2.10919972 12.04256731     6    259    0    0    0
H -19.57582518 5.19515709 10.86601739     6    259    0    0    0
C -21.25344180 2.30382888 8.47625628     2    259   263   264   265
H -20.99292701 2.84052862 6.51173563     6    262    0    0    0
H -21.17972213 0.28002035 8.35879543     6    262    0    0    0
C -23.89138457 3.01883458 9.34310942     2    262   266   267   268
H -24.37670848 2.32847404 11.32051956     6    265    0    0    0
H -23.90233409 5.12474291 9.38758060     6    265    0    0    0
C -26.02727435 2.19382714 7.42604118     2    265   269   270   271
H -26.00082961 3.43579414 5.83522622     6    268    0    0    0
H -25.60247727 0.26624714 6.86951704     6    268    0    0    0
C -28.57364641 2.53342048 8.59736139     2    268   272   273   274
H -28.71050012 1.06409202 10.10197813     6    271    0    0    0
H -28.62604621 4.35811063 9.76165501     6    271    0    0    0
C -30.75352642 2.18470429 6.79271162     1    271   275   276   277
H -30.81232540 3.58848158 5.37611193     6    274    0    0    0
H -32.53159138 2.15342542 7.73615306     6    274    0    0    0
H -30.57213034 0.39287427 5.81188595     6    274    0    0    0
H -1.17976189 27.58012915 21.63191214     6     279    0    0    0
C -1.91566438 27.01279375 19.67758925     1     278    280    281    282
H -3.00189325 28.55794711 18.77329700     6     279    0    0    0
H -0.27542220 26.69403093 18.35924850     6     279    0    0    0
C -3.23499999 24.59558199 19.83471025     2     279    283    284    285
H -1.81677989 22.97272782 20.03068386     6     282    0    0    0
H -4.60444995 24.59830631 21.40009119     6     282    0    0    0
C -4.44169887 23.94383685 17.30326107     2     282    286   287   288
H -2.94773321 24.27931355 15.81371493     6     285    0    0    0
H -4.91104497 21.88138870 17.31303049     6     285    0    0    0
C -6.83360917 25.34011105 16.91591609     2     285   289   290   291
H -8.01206698 25.17026187 18.61172321     6    288    0    0    0
H -6.24175926 27.28575057 16.71675547     6    288    0    0    0
C -8.64458633 24.32481862 14.83259937     2    288   292   293   294
H -7.72394045 24.67697504 12.93616422     6    291    0    0    0
H -8.66563792 22.18289637 15.18511858     6    291    0    0    0
C -11.27737538 25.46854073 14.97731290     2    291   295   296   297
H -12.19266520 24.66584455 16.71715514     6    294    0    0    0
H -10.94701756 27.46449456 14.95463331     6    294    0    0    0
C -13.00141662 24.76951931 12.74784110     2    294   298   299   300

   18   -1830.5120322615      6.86E-09 Convergence criterion met
 Total energy in the final basis set = -1828.20128854
 Total job time:  17.19s(wall), 30.78s(cpu)
        *  Thank you very much for using Q-Chem.  Have a nice day.  *

User input: 2 of 2

                  Welcome to Q-Chem
     A Quantum Leap Into The Future Of Chemistry

 Q-Chem 5.4 (devel), Q-Chem, Inc., Pleasanton, CA (2021)

 E. Epifanovsky,  A. T. B. Gilbert,  Xintian Feng,  Joonho Lee,  Yuezhi Mao,
 N. Mardirossian,  P. Pokhilko,  A. White,  M. Wormit,  M. P. Coons,
 A. L. Dempwolff,  Zhengting Gan,  D. Hait,  P. R. Horn,  L. D. Jacobson,
 I. Kaliman,  J. Kussmann,  A. W. Lange,  Ka Un Lao,  D. S. Levine,  Jie Liu,
 S. C. McKenzie,  A. F. Morrison,  K. Nanda,  F. Plasser,  D. R. Rehn,
 M. L. Vidal,  Zhi-Qiang You,  Ying Zhu,  B. Alam,  B. Albrecht,
 A. Aldossary,  E. Alguire,  J. H. Andersen,  D. Barton,  K. Begam,  A. Behn,
 Y. A. Bernard,  E. J. Berquist,  H. Burton,  A. Carreras,  K. Carter-Fenk,
 R. Chakraborty,  A. D. Chien,  K. D. Closser,  V. Cofer-Shabica,
 S. Dasgupta,  Jia Deng,  M. de Wergifosse,  M. Diedenhofen,  Hainam Do,
 S. Ehlert,  Po-Tung Fang,  S. Fatehi,  Qingguo Feng,  T. Friedhoff,
 J. Gayvert,  Qinghui Ge,  G. Gidofalvi,  M. Goldey,  J. Gomes,
 C. Gonzalez-Espinoza,  S. Gulania,  A. Gunina,  M. W. D. Hanson-Heine,
 P. H. P. Harbach,  A. W. Hauser,  M. F. Herbst,  M. Hernandez Vera,
 M. Hodecker,  Z. C. Holden,  S. Houck,  Xunkun Huang,  Kerwin Hui,
 B. C. Huynh,  M. Ivanov,  Hyunjun Ji,  Hanjie Jiang,  B. Kaduk,  S. Kaehler,
 K. Khistyaev,  Jaehoon Kim,  P. Klunzinger,  Z. Koczor-Benda,
 Joong Hoon Koh,  D. Kosenkov,  L. Koulias,  T. Kowalczyk,  C. M. Krauter,
 K. Kue,  A. Kunitsa,  T. Kus,  A. Landau,  K. V. Lawler,  D. Lefrancois,
 S. Lehtola,  Rain Li,  Yi-Pei Li,  Jiashu Liang,  M. Liebenthal,
 Hung-Hsuan Lin,  You-Sheng Lin,  Fenglai Liu,  Kuan-Yu Liu,
 M. Loipersberger,  A. Luenser,  A. Manjanath,  P. Manohar,  E. Mansoor,
 S. F. Manzer,  Shan-Ping Mao,  A. V. Marenich,  T. Markovich,  S. Mason,
 S. A. Maurer,  P. F. McLaughlin,  M. F. S. J. Menger,  J.-M. Mewes,
 S. A. Mewes,  P. Morgante,  J. W. Mullinax,  K. J. Oosterbaan,  G. Paran,
 Alexander C. Paul,  Suranjan K. Paul,  F. Pavosevic,  Zheng Pei,  S. Prager,
 E. I. Proynov,  E. Ramos,  B. Rana,  A. E. Rask,  A. Rettig,  R. M. Richard,
 F. Rob,  E. Rossomme,  T. Scheele,  M. Scheurer,  M. Schneider,
 N. Sergueev,  S. M. Sharada,  W. Skomorowski,  D. W. Small,  C. J. Stein,
 Yu-Chuan Su,  E. J. Sundstrom,  Zhen Tao,  J. Thirman,  T. Tsuchimochi,
 N. M. Tubman,  S. P. Veccham,  O. Vydrov,  J. Wenzel,  J. Witte,  A. Yamada,
 Kun Yao,  S. Yeganeh,  S. R. Yost,  A. Zech,  Igor Ying Zhang,  Xing Zhang,
 Yu Zhang,  D. Zuev,  A. Aspuru-Guzik,  A. T. Bell,  N. A. Besley,
 K. B. Bravaya,  B. R. Brooks,  D. Casanova,  Jeng-Da Chai,  S. Coriani,
 C. J. Cramer,  A. E. DePrince, III,  R. A. DiStasio Jr.,  A. Dreuw,
 B. D. Dunietz,  T. R. Furlani,  W. A. Goddard III,  S. Grimme,
 S. Hammes-Schiffer,  T. Head-Gordon,  W. J. Hehre,  Chao-Ping Hsu,
 T.-C. Jagau,  Yousung Jung,  A. Klamt,  Jing Kong,  D. S. Lambrecht,
 WanZhen Liang,  N. J. Mayhall,  C. W. McCurdy,  J. B. Neaton,
 C. Ochsenfeld,  J. A. Parkhill,  R. Peverati,  V. A. Rassolov,  Yihan Shao,
 L. V. Slipchenko,  T. Stauch,  R. P. Steele,  J. E. Subotnik,
 A. J. W. Thom,  A. Tkatchenko,  D. G. Truhlar,  T. Van Voorhis,
 T. A. Wesolowski,  K. B. Whaley,  H. L. Woodcock III,  P. M. Zimmerman,
 S. Faraji,  P. M. W. Gill,  M. Head-Gordon,  J. M. Herbert,  A. I. Krylov

 Additional authors for Version 5.4.1:
 S. Kotaru,  Shaozhi Li,  Xiangyuan Li,  F. Matz,  A. Molle,  Haisheng Ren,
 Yingli Su,  Hung-Yi Tsai,  C. Utku,  Fang Wang

 Contributors to earlier versions of Q-Chem not listed above:
 R. D. Adamson,  B. Austin,  R. Baer,  J. Baker,  G. J. O. Beran,
 K. Brandhorst,  S. T. Brown,  E. F. C. Byrd,  A. K. Chakraborty,
 G. K. L. Chan,  Chun-Min Chang,  Yunqing Chen,  C.-L. Cheng,
 Siu Hung Chien,  D. M. Chipman,  D. L. Crittenden,  H. Dachsel,
 R. J. Doerksen,  A. D. Dutoi,  R. G. Edgar,  J. Fosso-Tande,
 L. Fusti-Molnar,  D. Ghosh,  A. Ghysels,  A. Golubeva-Zadorozhnaya,
 J. Gonthier,  M. S. Gordon,  S. R. Gwaltney,  G. Hawkins,  J. E. Herr,
 A. Heyden,  S. Hirata,  E. G. Hohenstein,  G. Kedziora,  F. J. Keil,
 C. Kelley,  Jihan Kim,  R. A. King,  R. Z. Khaliullin,  P. P. Korambath,
 W. Kurlancheek,  A. Laurent,  A. M. Lee,  M. S. Lee,  S. V. Levchenko,
 Ching Yeh Lin,  D. Liotard,  E. Livshits,  R. C. Lochan,  I. Lotan,
 L. A. Martinez-Martinez,  P. E. Maslen,  N. Nair,  D. P. O'Neill,
 D. Neuhauser,  E. Neuscamman,  C. M. Oana,  R. Olivares-Amaya,  R. Olson,
 T. M. Perrine,  B. Peters,  P. A. Pieniazek,  A. Prociuk,  Y. M. Rhee,
 J. Ritchie,  M. A. Rohrdanz,  E. Rosta,  N. J. Russ,  H. F. Schaefer III,
 M. W. Schmidt,  N. E. Schultz,  S. Sharma,  N. Shenvi,  C. D. Sherrill,
 A. C. Simmonett,  A. Sodt,  T. Stein,  D. Stuck,  K. S. Thanthiriwatte,
 V. Vanovschi,  L. Vogt,  Tao Wang,  A. Warshel,  M. A. Watson,
 C. F. Williams,  Q. Wu,  X. Xu,  Jun Yang,  W. Zhang,  Yan Zhao

 Please cite Q-Chem as follows:
 Y. Shao et al., Mol. Phys. 113, 184-215 (2015)
 DOI: 10.1080/00268976.2014.952696

 Q-Chem 5.4.1 for Intel X86 EM64T Linux

 Parts of Q-Chem use Armadillo 9.900.5 (Nocturnal Misbehaviour).
 http://arma.sourceforge.net/

 Q-Chem begins on Fri Jul  1 20:00:20 2022

 Host: p09r14n09.grace.hpc.yale.internal
0

     Scratch files written to /home/tl686/scratch60/qchem_dev/scratch/qchem8791//
 Processing $rem in /home/tl686/qchem_dev/qchem/config/preferences:
 Processing $rem in /home/tl686/.qchemrc:
Applying user defined connections for MM calculations
The previous job contains 0 fragments, simply inherited here

 Checking the input file for inconsistencies... 	...done.

--------------------------------------------------------------
User input:
--------------------------------------------------------------

$molecule
READ
$end

$qm_atoms
1:11
$end

$force_field_params
NumAtomTypes 3
AtomType -1   0.0238     3.11   0.2868
AtomType -2   0.07124    3.30   0.6597
AtomType -3  -0.0760     3.09   0.1434
$end

$rem
     JOBTYPE  freq
     METHOD   bp86
     BASIS    def2-msvp
     MAX_SCF_CYCLES   800
     INPUT_BOHR TRUE
     SYM_IGNORE TRUE
     SCF_GUESS     read
     user_connect            true
     qm_mm_interface         ONIOM
     force_field             oplsaa
$end

--------------------------------------------------------------

    2   -1830.5120322620      8.34E-09 Convergence criterion met
 Total energy in the final basis set = -1828.20128854

                    Orbital Energies (a.u.)
 --------------------------------------------------------------

 Alpha MOs
 -- Occupied --
******** -29.6333 -25.5939 -25.5812 -25.5757 -18.9000 -18.8892 -18.8833
-18.8729 -18.8636 -10.0588 -10.0576 -10.0575 -10.0400 -10.0352  -3.3167
 -2.1527  -2.1295  -2.1172  -1.0832  -1.0500  -1.0485  -1.0419  -1.0203
 -0.5697  -0.5292  -0.5250  -0.5138  -0.5104  -0.4534  -0.4469  -0.4406
 -0.4369  -0.4291  -0.4252  -0.4234  -0.4160  -0.4148  -0.4118  -0.3975
 -0.3962  -0.3926  -0.3901  -0.3769  -0.2745  -0.2658  -0.2323  -0.2159

          Ground-State Mulliken Net Atomic Charges

     Atom                 Charge (a.u.)
  ----------------------------------------
      1 Fe                   -0.433924
      2 C                     0.192116
      3 C                     0.210925
      4 C                     0.192772
      5 C                     0.203495
      6 C                     0.222009
      7 O                    -0.134224
      8 O                    -0.120081
      9 O                    -0.115779
     10 O                    -0.066431
     11 O                    -0.150877
  ----------------------------------------
  Sum of atomic charges =     0.000000

                    Cartesian Multipole Moments
 -----------------------------------------------------------------
    Charge (ESU x 10^10)
                -0.0000
    Dipole Moment (Debye)
         X       0.8837561519      Y       0.3868589741      Z      -0.3375170886
       Tot       1.0220580154
    Quadrupole Moments (Debye-Ang)
        XX     -90.8924     XY       3.4909     YY     -62.7141
        XZ      21.0681     YZ       3.6802     ZZ     -83.7334
