 Q-Chem 5.4 (devel), Q-Chem, Inc., Pleasanton, CA (2021)
 Q-Chem 5.4.1 for Intel X86 EM64T Linux

User input:
--------------------------------------------------------------
$molecule
0   1
 Fe 1474.90218006 67.71158130 59.67453786    -1  0   0   0   0
C 1475.75379912 66.11348049 56.80053616    -2  0   0   0   0
C 1474.55635682 69.28358019 62.74249224    -2  0   0   0   0
C 1471.80715877 68.31735096 58.49118092    -2  0   0   0   0
C 1475.73110781 64.82194682 61.27370595    -2  0   0   0   0
C 1477.34953227 69.96971876 58.88895284    -2  0   0   0   0
O 1476.45229701 65.08183299 55.08388173    -3  0   0   0   0
O 1474.70728795 70.51217487 64.63056038    -3  0   0   0   0
O 1469.60897065 68.70234405 57.85496123    -3  0   0   0   0
O 1476.28009009 62.93867420 62.20570089    -3  0   0   0   0
O 1478.83356347 71.55133448 58.37237658    -3  0   0   0   0
H 1456.08197937 48.91314121 48.62638681      6     13    0    0    0
C 1456.37505071 50.10808245 47.03553345     1     12    14    15    16
H 1454.93522190 50.15290488 45.69006745     6     13    0    0    0
H 1456.46822439 51.86565232 47.88908951     6     13    0    0    0
C 1458.89511182 49.26778471 45.95598378     2     13    17    18    19
H 1458.62275833 47.30195296 45.47041103     6     16    0    0    0
H 1459.39336226 50.40421312 44.22987345     6     16    0    0    0
C 1460.99097816 49.53208333 47.74971374     2     16    20   21   22
H 1461.55168095 51.55054852 47.81201701     6     19    0    0    0
H 1460.50151137 48.96966930 49.61091928     6     19    0    0    0
C 1463.24027941 47.78147853 46.82190933     2     19   23   24   25
H 1462.67151073 45.83167499 47.03301548     6    22    0    0    0
H 1463.46386786 48.33447919 44.86863347     6    22    0    0    0
C 1465.63820439 48.18387756 48.16595991     2    22   26   27   28
H 1466.56468439 50.02088035 47.80535479     6    25    0    0    0
H 1465.10328687 48.19877857 50.11481000     6    25    0    0    0
C 1467.55372796 46.17484362 47.67701899     2    25   29   30   31
H 1466.98101943 44.29117335 48.53175622     6    28    0    0    0
H 1467.55103044 45.97839485 45.65822729     6    28    0    0    0
C 1470.12663342 46.92782993 48.82578341     2    28   32   33   34
H 1470.69748001 48.82416722 48.06807974     6    31    0    0    0
H 1470.05824729 47.20948514 50.88452184     6    31    0    0    0
C 1472.16605707 45.00741731 48.19399231     2    31   35   36   37
H 1471.28312798 43.14159902 48.47804591     6    34    0    0    0
H 1472.71123686 45.22472021 46.29453888     6    34    0    0    0
C 1474.58292432 45.40221938 49.74315429     2    34   38   39   40
H 1475.47245881 47.12335251 49.15745905     6    37    0    0    0
H 1474.25857621 45.67757741 51.76119726     6    37    0    0    0
C 1476.57188078 43.26970437 49.45370232     2    37   41   42   43
H 1475.91525846 41.45276733 50.25703031     6    40    0    0    0
H 1477.00897739 42.92974425 47.46275503     6    40    0    0    0
C 1479.09079301 44.29640019 50.63928314     2    40   44   45   46
H 1479.78178423 46.15696191 49.76321100     6    43    0    0    0
H 1478.91732284 44.70587653 52.57976261     6    43    0    0    0
C 1481.13445846 42.18538237 50.40866576     1    43   47   48   49
H 1480.39264722 40.29545106 50.78319976     6    46    0    0    0
H 1482.63977755 42.49154050 51.66895201     6    46    0    0    0
H 1481.68508884 42.08198722 48.42824953     6    46    0    0    0
H 1482.47682736 59.16114251 56.80623445     6     51    0    0    0
C 1480.57475481 59.91444614 57.20944884     1     50    52    53    54
H 1480.14529205 59.55964461 59.17630304     6     51    0    0    0
H 1480.82461774 61.99637222 57.12450140     6     51    0    0    0
C 1478.56557393 59.00963779 55.31094859     2     51    55    56    57
H 1476.92846620 60.19933480 55.82537872     6     54    0    0    0
H 1478.89456171 59.39887093 53.30613832     6     54    0    0    0
C 1477.97594657 56.17456609 55.90356067     2     54    58   59   60
H 1477.38722236 55.96279810 57.95549042     6     57    0    0    0
H 1476.46975857 55.50060068 54.62147542     6     57    0    0    0
C 1480.14146258 54.44626130 55.17249304     2     57   61   62   63
H 1480.69175724 54.69964774 53.14434321     6    60    0    0    0
H 1481.89615951 54.98025601 56.05359628     6    60    0    0    0
C 1479.54278636 51.70404249 55.62975939     2    60   64   65   66
H 1479.41986534 51.61952930 57.67887388     6    63    0    0    0
H 1477.78308090 51.21869410 54.68247071     6    63    0    0    0
C 1481.47736849 49.70998542 54.76248366     2    63   67   68   69
H 1480.98890366 48.20409841 56.12314428     6    66    0    0    0
H 1480.97514805 49.16687498 52.90848149     6    66    0    0    0
C 1484.30349599 50.37829923 54.61838146     2    66   70   71   72
H 1484.43955308 51.97628121 53.41285137     6    69    0    0    0
H 1485.08378962 51.06530246 56.37297406     6    69    0    0    0
C 1485.76005266 48.31716391 53.40188392     2    69   73   74   75
H 1485.86178225 46.71692722 54.79131984     6    72    0    0    0
H 1484.68466979 47.31664538 51.85516910     6    72    0    0    0
C 1488.37126957 49.19296838 52.67588210     2    72   76   77   78
H 1488.27442257 50.70905359 51.23360377     6    75    0    0    0
H 1489.37452820 50.07628278 54.31739927     6    75    0    0    0
C 1489.86720831 46.94739572 51.68114862     2    75   79   80   81
H 1489.66650543 45.52754641 53.13145431     6    78    0    0    0
H 1489.10222805 46.34861828 49.91411641     6    78    0    0    0
C 1492.58336989 47.48202070 51.01989610     2    78   82   83   84
H 1492.97925279 48.95892918 49.59292247     6    81    0    0    0
H 1493.52518088 48.09946184 52.73811320     6    81    0    0    0
C 1494.09651164 45.21521515 50.17424674     1    81   85   86   87
H 1496.02588791 45.56841038 49.49071752     6    84    0    0    0
H 1492.95831056 44.28045195 48.70320538     6    84    0    0    0
H 1494.19342825 43.82345748 51.63295788     6    84    0    0    0
H 1457.94534028 47.14495451 65.45163704     6     89    0    0    0
C 1459.34956118 45.84203734 66.11373619     1     88    90    91    92
H 1460.82299727 46.97485318 67.12831249     6     89    0    0    0
H 1458.30869544 44.70359029 67.45895754     6     89    0    0    0
C 1460.46376493 44.55292064 63.77937115     2     89    93    94    95
H 1459.13195265 43.86481971 62.47579376     6     92    0    0    0
H 1461.38029963 46.24518783 62.76584164     6     92    0    0    0
C 1462.31684761 42.43035935 64.38137487     2     92    96   97   98
H 1463.82298645 43.08084937 65.54871057     6     95    0    0    0
H 1461.54812285 40.95376019 65.67901391     6     95    0    0    0
C 1463.62942511 41.26188132 62.11187209     2     95   99   100   101
H 1462.34597375 41.13963250 60.45169177     6    98    0    0    0
H 1465.09257050 42.55354402 61.38246034     6    98    0    0    0
C 1464.61649908 38.64066703 62.68516120     2    98   102   103   104
H 1466.15873619 38.90143428 64.06920525     6    101    0    0    0
H 1463.34659311 37.32189296 63.47164646     6    101    0    0    0
C 1465.78942592 37.52798533 60.21784140     2    101   105   106   107
H 1464.11900864 37.13336789 59.10599499     6    104    0    0    0
H 1466.84121221 39.05326571 59.58627113     6    104    0    0    0
C 1467.35259644 35.05242590 60.21493456     2    104   108   109   110
H 1468.72247049 35.14776600 61.76439311     6    107    0    0    0
H 1466.26979749 33.22603396 60.75769526     6    107    0    0    0
C 1468.55800452 34.17356303 57.65864453     2    107   111   112   113
H 1467.04096256 34.11613267 56.19337668     6    110    0    0    0
H 1469.89686835 35.67467482 57.17542564     6    110    0    0    0
C 1469.78523176 31.50898369 57.74087418     2    110   114   115   116
H 1471.42440892 31.45978102 58.81690283     6    113    0    0    0
H 1468.27801490 30.18819456 58.47831255     6    113    0    0    0
C 1470.40722249 30.74289757 54.97664843     2    113   117   118   119
H 1468.71693127 30.77512260 53.89328695     6    116    0    0    0
H 1471.66899411 32.11798549 54.14024257     6    116    0    0    0
C 1471.74647939 28.14712538 54.72496083     2    116   120   121   122
H 1472.38506021 28.02364282 52.75685361     6    119    0    0    0
H 1473.32468189 28.02325919 55.98373366     6    119    0    0    0
C 1469.92424155 26.01053766 55.37586899     1    119   123   124   125
H 1470.92820723 24.16728152 55.22388306     6    122    0    0    0
H 1468.41804185 26.09406269 54.04212810     6    122    0    0    0
H 1468.87341559 26.01531032 57.09949745     6    122    0    0    0
H 1447.09427577 39.90941592 75.75394144     6     127    0    0    0
C 1448.39053806 41.21464500 76.70431599     1     126    128    129    130
H 1447.87525574 41.44805330 78.66141364     6     127    0    0    0
H 1450.29084342 40.35505464 76.67017783     6     127    0    0    0
C 1448.35373259 43.79780225 75.47680184     2     127    131    132    133
H 1448.11418854 43.42994588 73.41355819     6     130    0    0    0
H 1446.51802267 44.68933446 76.06320397     6     130    0    0    0
C 1450.83269835 45.31145200 76.10359057     2     130    134   135   136
H 1451.14607159 45.33220065 78.13833888     6     133    0    0    0
H 1452.41448603 44.17085764 75.36024428     6     133    0    0    0
C 1451.18913697 47.86179396 74.91248253     2     133   137   138   139
H 1450.88333969 47.74015266 72.87337893     6    136    0    0    0
H 1449.64035914 49.19470164 75.54230358     6    136    0    0    0
C 1453.70046482 49.10737298 75.51242042     2    136   140   141   142
H 1453.46604263 49.83147733 77.48716333     6    139    0    0    0
H 1455.38580239 47.96419562 75.57028650     6    139    0    0    0
C 1453.92796957 51.63481054 73.97016434     2    139   143   144   145
H 1454.21156714 50.88059702 72.06787008     6    142    0    0    0
H 1452.28507322 52.78023370 73.91664205     6    142    0    0    0
C 1456.38824754 52.85873633 74.77750501     2    142   146   147   148
H 1455.88649027 53.46116113 76.64262920     6    145    0    0    0
H 1458.04166277 51.58893761 74.94604329     6    145    0    0    0
C 1456.67773728 55.36070116 73.19783896     2    145   149   150   151
H 1457.60981826 55.08700023 71.35157573     6    148    0    0    0
H 1454.79237810 56.20276622 72.69725522     6    148    0    0    0
C 1458.31805354 57.08439764 74.80577493     2    148   152   153   154
H 1457.17056651 57.53463940 76.57313208     6    151    0    0    0
H 1459.96388840 55.86587334 75.33632253     6    151    0    0    0
C 1459.15723896 59.68868428 73.54012994     2    151   155   156   157
H 1461.00677350 60.18895117 74.57332354     6    154    0    0    0
H 1459.58431324 59.39562500 71.60202146     6    154    0    0    0
C 1457.33113284 62.00108542 73.91741326     2    154   158   159   160
H 1455.65419592 61.50978687 73.08423143     6    157    0    0    0
H 1457.03818080 62.44696429 75.88559842     6    157    0    0    0
C 1458.30527869 64.25008027 72.26817671     1    157   161   162   163
H 1456.82268598 65.62943161 71.86873279     6    160    0    0    0
H 1458.88540903 63.44920673 70.41903742     6    160    0    0    0
H 1460.10232718 65.02139386 73.18167563     6    160    0    0    0
H 1461.90952423 38.47395044 70.44687906     6     165    0    0    0
C 1462.29034762 38.27909863 72.53456606     1     164    166    167    168
H 1461.48168034 36.46645456 73.21640508     6     165    0    0    0
H 1464.28865535 38.23656107 72.82112249     6     165    0    0    0
C 1461.39225869 40.41006270 74.19140211     2     165    169    170    171
H 1462.28081293 42.06523937 73.26067823     6     168    0    0    0
H 1459.37529216 40.50906751 74.10700968     6     168    0    0    0
C 1462.25080554 40.37434712 76.94623450     2     168    172   173   174
H 1461.69351231 38.66056474 77.83534399     6     171    0    0    0
H 1464.34855665 40.30737819 77.10992767     6     171    0    0    0
C 1461.10201283 42.67006427 78.41544294     2     171   175   176   177
H 1461.83721417 44.25349512 77.36427111     6    174    0    0    0
H 1459.03019925 42.39704984 78.23517929     6    174    0    0    0
C 1461.94194240 42.96583560 81.09456174     2    174   178   179   180
H 1461.60777466 41.28540719 82.11234021     6    177    0    0    0
H 1464.03542049 43.40140719 81.26691004     6    177    0    0    0
C 1460.48505978 44.92820333 82.63544813     2    177   181   182   183
H 1460.24204526 46.51210968 81.49828534     6    180    0    0    0
H 1458.60100358 44.29364854 83.17418925     6    180    0    0    0
C 1462.11500373 45.44224051 84.96608717     2    180   184   185   186
H 1462.61132217 43.71964567 85.82069407     6    183    0    0    0
H 1463.92498231 46.16548471 84.29138563     6    183    0    0    0
C 1460.87960691 46.97808852 87.12579100     2    183   187   188   189
H 1459.78357723 48.46699303 86.35965122     6    186    0    0    0
H 1459.30703970 45.96703403 88.10802739     6    186    0    0    0
C 1463.00178947 47.77873381 88.89463504     2    186   190   191   192
H 1464.35514049 46.18545027 89.26781261     6    189    0    0    0
H 1464.22721989 49.23154251 87.94057694     6    189    0    0    0
C 1461.79062205 48.84519254 91.35259909     2    189   193   194   195
H 1460.94743844 50.78032514 91.18367941     6    192    0    0    0
H 1460.20770405 47.70702504 92.02161068     6    192    0    0    0
C 1463.85136502 48.80089725 93.51950784     2    192   196   197   198
H 1464.15460574 46.77233919 93.88278554     6    195    0    0    0
H 1465.44044889 50.07035569 93.22013153     6    195    0    0    0
C 1462.65738717 49.86384320 95.95743512     1    195   199   200   201
H 1463.94997161 50.11918858 97.56376108     6    198    0    0    0
H 1460.92706440 48.72189189 96.49735435     6    198    0    0    0
H 1461.87176610 51.68828106 95.62440554     6    198    0    0    0
H 1481.38046820 44.66983801 76.26975853     6     203    0    0    0
C 1481.24752720 42.68167212 76.10478874     1     202    204    205    206
H 1480.71721584 42.06877114 77.92722763     6     203    0    0    0
H 1479.55312463 42.28266613 75.06482566     6     203    0    0    0
C 1483.90184168 41.68831751 75.40883254     2     203    207    208    209
H 1484.36796901 40.01336518 76.60400020     6     206    0    0    0
H 1484.02894262 40.91211710 73.52869065     6     206    0    0    0
C 1485.90405436 43.54489850 75.51568868     2     206    210   211   212
H 1487.56445747 43.18400918 74.39460737     6     209    0    0    0
H 1485.29050624 45.22842282 74.61920140     6     209    0    0    0
C 1486.72873932 44.25721646 78.17052296     2     209   213   214   215
H 1485.44232414 45.56201673 78.98213255     6    212    0    0    0
H 1486.80764999 42.77522218 79.59269957     6    212    0    0    0
C 1489.23766388 45.63151368 78.14887748     2    212   216   217   218
H 1490.87676887 44.60502778 77.58635008     6    215    0    0    0
H 1489.12569589 47.24299697 76.83306668     6    215    0    0    0
C 1489.78145305 46.82026510 80.67836795     2    215   219   220   221
H 1488.34697985 48.36604729 80.92563288     6    218    0    0    0
H 1489.49408252 45.57869950 82.17573117     6    218    0    0    0
C 1492.63743142 47.72249475 80.65951102     2    218   222   223   224
H 1493.70595445 46.05476810 80.17045952     6    221    0    0    0
H 1492.94072178 49.07602368 79.13326895     6    221    0    0    0
C 1493.34202332 49.07636609 83.18000586     2    221   225   226   227
H 1491.70273269 50.29753905 83.53937431     6    224    0    0    0
H 1493.29426974 47.70367963 84.69460180     6    224    0    0    0
C 1495.84810471 50.51908887 83.12433911     2    224   228   229   230
H 1497.38919816 49.21457527 83.20512369     6    227    0    0    0
H 1495.99620487 51.58832344 81.41409051     6    227    0    0    0
C 1495.96103831 52.46691900 85.12855446     2    227   231   232   233
H 1494.60202246 53.91869613 84.52050021     6    230    0    0    0
H 1495.34550372 51.65050017 86.88773791     6    230    0    0    0
C 1498.40139477 54.01206077 85.37069626     2    230   234   235   236
H 1499.84274444 52.68326962 86.10779392     6    233    0    0    0
H 1499.15499302 54.59401612 83.43803949     6    233    0    0    0
C 1497.73811917 56.49254493 86.88802084     1    233   237   238   239
H 1499.30630223 57.33164868 87.72218531     6    236    0    0    0
H 1496.59219614 56.20004608 88.55492734     6    236    0    0    0
H 1496.94121713 58.00382481 85.77027016     6    236    0    0    0
H 1493.41663752 39.97393567 48.05856758     6     241    0    0    0
C 1492.87139757 38.33770497 49.31401608     1     240    242    243    244
H 1494.15617754 36.88629158 49.08891819     6     241    0    0    0
H 1492.91044503 39.01788676 51.21053319     6     241    0    0    0
C 1490.11005013 37.60545345 48.60355044     2     241    245    246    247
H 1489.78781554 36.90934232 46.73552658     6     244    0    0    0
H 1489.81623429 36.01267326 49.78659698     6     244    0    0    0
C 1488.03109915 39.53695652 49.32054264     2     244    248   249   250
H 1486.22266838 38.50473376 49.23195308     6     247    0    0    0
H 1488.22913375 40.27352231 51.20118952     6     247    0    0    0
C 1487.50917345 41.77233161 47.75178531     2     247   251   252   253
H 1486.05292317 42.86248126 48.62364419     6    250    0    0    0
H 1489.31866211 42.84359079 47.46269247     6    250    0    0    0
C 1486.58133413 41.16091563 45.03437002     2    250   254   255   256
H 1487.92385626 40.12555005 43.81706308     6    253    0    0    0
H 1485.10862032 39.70462609 45.33204793     6    253    0    0    0
C 1485.43657731 43.40931082 43.40814925     2    253   257   258   259
H 1484.21606372 42.77174946 42.01187228     6    256    0    0    0
H 1484.39640213 44.75868718 44.68034753     6    256    0    0    0
C 1487.67857529 45.12070749 42.39459927     2    256   260   261   262
H 1488.79334925 45.87084557 44.01310000     6    259    0    0    0
H 1488.95159053 43.73484820 41.47759879     6    259    0    0    0
C 1486.76695051 47.27644717 40.71081631     2    259   263   264   265
H 1484.90084050 46.72256770 39.89165392     6    262    0    0    0
H 1486.30902812 48.80501937 41.92364777     6    262    0    0    0
C 1488.65351330 48.20166273 38.72563777     2    262   266   267   268
H 1487.94843383 50.18254163 38.42789806     6    265    0    0    0
H 1490.57231340 48.49681150 39.55366225     6    265    0    0    0
C 1488.29487438 47.08706863 36.14464767     2    265   269   270   271
H 1487.97991925 45.06908497 36.25468468     6    268    0    0    0
H 1486.67334579 48.03768785 35.39654635     6    268    0    0    0
C 1490.47352131 47.75916988 34.34135295     2    268   272   273   274
H 1490.48562880 49.85011622 34.26965512     6    271    0    0    0
H 1492.30735764 46.93542001 35.19389910     6    271    0    0    0
C 1489.96424143 46.36366808 31.89942356     1    271   275   276   277
H 1489.54325991 44.52260499 31.93311494     6    274    0    0    0
H 1491.53018446 46.52293537 30.60024985     6    274    0    0    0
H 1488.11526845 47.15022980 31.24998052     6    274    0    0    0
H 1482.30017048 34.85107058 67.58015170     6     279    0    0    0
C 1481.38149125 36.66683457 67.16538980     1     278    280    281    282
H 1480.77127087 36.52117332 65.14732471     6     279    0    0    0
H 1479.70661086 36.67646304 68.32334574     6     279    0    0    0
C 1483.16446157 38.98511915 67.48062652     2     279    283    284    285
H 1482.46589870 40.53454389 66.35988771     6     282    0    0    0
H 1482.88848448 39.54985759 69.46159959     6     282    0    0    0
C 1485.87075274 38.30725572 66.78005037     2     282    286   287   288
H 1486.52663546 36.47615059 67.49935085     6     285    0    0    0
H 1485.93292367 38.19674174 64.61960487     6     285    0    0    0
C 1487.80952729 40.22266071 67.55217643     2     285   289   290   291
H 1487.37276198 41.94577956 66.50068270     6    288    0    0    0
H 1487.70587326 40.75188316 69.50570481     6    288    0    0    0
C 1490.50441303 39.63512420 66.83352768     2    288   292   293   294
H 1491.02004749 38.03791102 68.01318035     6    291    0    0    0
H 1490.67845213 38.95335372 64.90715823     6    291    0    0    0
C 1492.41460476 41.72183581 67.46608347     2    291   295   296   297
H 1491.74099785 43.72024939 66.65909250     6    294    0    0    0
H 1492.30632823 41.65510446 69.62082960     6    294    0    0    0
C 1495.14586069 41.14582530 66.83167138     2    294   298   299   300

   17   -1830.5132792922      4.98E-09 Convergence criterion met
 Total energy in the final basis set = -1828.31619569
 Total job time:  15.72s(wall), 28.03s(cpu)
        *  Thank you very much for using Q-Chem.  Have a nice day.  *

User input: 2 of 2

                  Welcome to Q-Chem
     A Quantum Leap Into The Future Of Chemistry

 Q-Chem 5.4 (devel), Q-Chem, Inc., Pleasanton, CA (2021)

 E. Epifanovsky,  A. T. B. Gilbert,  Xintian Feng,  Joonho Lee,  Yuezhi Mao,
 N. Mardirossian,  P. Pokhilko,  A. White,  M. Wormit,  M. P. Coons,
 A. L. Dempwolff,  Zhengting Gan,  D. Hait,  P. R. Horn,  L. D. Jacobson,
 I. Kaliman,  J. Kussmann,  A. W. Lange,  Ka Un Lao,  D. S. Levine,  Jie Liu,
 S. C. McKenzie,  A. F. Morrison,  K. Nanda,  F. Plasser,  D. R. Rehn,
 M. L. Vidal,  Zhi-Qiang You,  Ying Zhu,  B. Alam,  B. Albrecht,
 A. Aldossary,  E. Alguire,  J. H. Andersen,  D. Barton,  K. Begam,  A. Behn,
 Y. A. Bernard,  E. J. Berquist,  H. Burton,  A. Carreras,  K. Carter-Fenk,
 R. Chakraborty,  A. D. Chien,  K. D. Closser,  V. Cofer-Shabica,
 S. Dasgupta,  Jia Deng,  M. de Wergifosse,  M. Diedenhofen,  Hainam Do,
 S. Ehlert,  Po-Tung Fang,  S. Fatehi,  Qingguo Feng,  T. Friedhoff,
 J. Gayvert,  Qinghui Ge,  G. Gidofalvi,  M. Goldey,  J. Gomes,
 C. Gonzalez-Espinoza,  S. Gulania,  A. Gunina,  M. W. D. Hanson-Heine,
 P. H. P. Harbach,  A. W. Hauser,  M. F. Herbst,  M. Hernandez Vera,
 M. Hodecker,  Z. C. Holden,  S. Houck,  Xunkun Huang,  Kerwin Hui,
 B. C. Huynh,  M. Ivanov,  Hyunjun Ji,  Hanjie Jiang,  B. Kaduk,  S. Kaehler,
 K. Khistyaev,  Jaehoon Kim,  P. Klunzinger,  Z. Koczor-Benda,
 Joong Hoon Koh,  D. Kosenkov,  L. Koulias,  T. Kowalczyk,  C. M. Krauter,
 K. Kue,  A. Kunitsa,  T. Kus,  A. Landau,  K. V. Lawler,  D. Lefrancois,
 S. Lehtola,  Rain Li,  Yi-Pei Li,  Jiashu Liang,  M. Liebenthal,
 Hung-Hsuan Lin,  You-Sheng Lin,  Fenglai Liu,  Kuan-Yu Liu,
 M. Loipersberger,  A. Luenser,  A. Manjanath,  P. Manohar,  E. Mansoor,
 S. F. Manzer,  Shan-Ping Mao,  A. V. Marenich,  T. Markovich,  S. Mason,
 S. A. Maurer,  P. F. McLaughlin,  M. F. S. J. Menger,  J.-M. Mewes,
 S. A. Mewes,  P. Morgante,  J. W. Mullinax,  K. J. Oosterbaan,  G. Paran,
 Alexander C. Paul,  Suranjan K. Paul,  F. Pavosevic,  Zheng Pei,  S. Prager,
 E. I. Proynov,  E. Ramos,  B. Rana,  A. E. Rask,  A. Rettig,  R. M. Richard,
 F. Rob,  E. Rossomme,  T. Scheele,  M. Scheurer,  M. Schneider,
 N. Sergueev,  S. M. Sharada,  W. Skomorowski,  D. W. Small,  C. J. Stein,
 Yu-Chuan Su,  E. J. Sundstrom,  Zhen Tao,  J. Thirman,  T. Tsuchimochi,
 N. M. Tubman,  S. P. Veccham,  O. Vydrov,  J. Wenzel,  J. Witte,  A. Yamada,
 Kun Yao,  S. Yeganeh,  S. R. Yost,  A. Zech,  Igor Ying Zhang,  Xing Zhang,
 Yu Zhang,  D. Zuev,  A. Aspuru-Guzik,  A. T. Bell,  N. A. Besley,
 K. B. Bravaya,  B. R. Brooks,  D. Casanova,  Jeng-Da Chai,  S. Coriani,
 C. J. Cramer,  A. E. DePrince, III,  R. A. DiStasio Jr.,  A. Dreuw,
 B. D. Dunietz,  T. R. Furlani,  W. A. Goddard III,  S. Grimme,
 S. Hammes-Schiffer,  T. Head-Gordon,  W. J. Hehre,  Chao-Ping Hsu,
 T.-C. Jagau,  Yousung Jung,  A. Klamt,  Jing Kong,  D. S. Lambrecht,
 WanZhen Liang,  N. J. Mayhall,  C. W. McCurdy,  J. B. Neaton,
 C. Ochsenfeld,  J. A. Parkhill,  R. Peverati,  V. A. Rassolov,  Yihan Shao,
 L. V. Slipchenko,  T. Stauch,  R. P. Steele,  J. E. Subotnik,
 A. J. W. Thom,  A. Tkatchenko,  D. G. Truhlar,  T. Van Voorhis,
 T. A. Wesolowski,  K. B. Whaley,  H. L. Woodcock III,  P. M. Zimmerman,
 S. Faraji,  P. M. W. Gill,  M. Head-Gordon,  J. M. Herbert,  A. I. Krylov

 Additional authors for Version 5.4.1:
 S. Kotaru,  Shaozhi Li,  Xiangyuan Li,  F. Matz,  A. Molle,  Haisheng Ren,
 Yingli Su,  Hung-Yi Tsai,  C. Utku,  Fang Wang

 Contributors to earlier versions of Q-Chem not listed above:
 R. D. Adamson,  B. Austin,  R. Baer,  J. Baker,  G. J. O. Beran,
 K. Brandhorst,  S. T. Brown,  E. F. C. Byrd,  A. K. Chakraborty,
 G. K. L. Chan,  Chun-Min Chang,  Yunqing Chen,  C.-L. Cheng,
 Siu Hung Chien,  D. M. Chipman,  D. L. Crittenden,  H. Dachsel,
 R. J. Doerksen,  A. D. Dutoi,  R. G. Edgar,  J. Fosso-Tande,
 L. Fusti-Molnar,  D. Ghosh,  A. Ghysels,  A. Golubeva-Zadorozhnaya,
 J. Gonthier,  M. S. Gordon,  S. R. Gwaltney,  G. Hawkins,  J. E. Herr,
 A. Heyden,  S. Hirata,  E. G. Hohenstein,  G. Kedziora,  F. J. Keil,
 C. Kelley,  Jihan Kim,  R. A. King,  R. Z. Khaliullin,  P. P. Korambath,
 W. Kurlancheek,  A. Laurent,  A. M. Lee,  M. S. Lee,  S. V. Levchenko,
 Ching Yeh Lin,  D. Liotard,  E. Livshits,  R. C. Lochan,  I. Lotan,
 L. A. Martinez-Martinez,  P. E. Maslen,  N. Nair,  D. P. O'Neill,
 D. Neuhauser,  E. Neuscamman,  C. M. Oana,  R. Olivares-Amaya,  R. Olson,
 T. M. Perrine,  B. Peters,  P. A. Pieniazek,  A. Prociuk,  Y. M. Rhee,
 J. Ritchie,  M. A. Rohrdanz,  E. Rosta,  N. J. Russ,  H. F. Schaefer III,
 M. W. Schmidt,  N. E. Schultz,  S. Sharma,  N. Shenvi,  C. D. Sherrill,
 A. C. Simmonett,  A. Sodt,  T. Stein,  D. Stuck,  K. S. Thanthiriwatte,
 V. Vanovschi,  L. Vogt,  Tao Wang,  A. Warshel,  M. A. Watson,
 C. F. Williams,  Q. Wu,  X. Xu,  Jun Yang,  W. Zhang,  Yan Zhao

 Please cite Q-Chem as follows:
 Y. Shao et al., Mol. Phys. 113, 184-215 (2015)
 DOI: 10.1080/00268976.2014.952696

 Q-Chem 5.4.1 for Intel X86 EM64T Linux

 Parts of Q-Chem use Armadillo 9.900.5 (Nocturnal Misbehaviour).
 http://arma.sourceforge.net/

 Q-Chem begins on Wed Jun 22 08:05:41 2022

 Host: p09r16n04.grace.hpc.yale.internal
0

     Scratch files written to /home/tl686/scratch60/qchem_dev/scratch/qchem69812//
 Processing $rem in /home/tl686/qchem_dev/qchem/config/preferences:
 Processing $rem in /home/tl686/.qchemrc:
Applying user defined connections for MM calculations
The previous job contains 0 fragments, simply inherited here

 Checking the input file for inconsistencies... 	...done.

--------------------------------------------------------------
User input:
--------------------------------------------------------------

$molecule
READ
$end

$qm_atoms
1:11
$end

$force_field_params
NumAtomTypes 3
AtomType -1   0.0238     3.11   0.2868
AtomType -2   0.07124    3.30   0.6597
AtomType -3  -0.0760     3.09   0.1434
$end

$rem
     JOBTYPE  freq
     METHOD   bp86
     BASIS    def2-msvp
     MAX_SCF_CYCLES   800
     INPUT_BOHR TRUE
     SYM_IGNORE TRUE
     SCF_GUESS     read
     user_connect            true
     qm_mm_interface         ONIOM
     force_field             oplsaa
$end

--------------------------------------------------------------

    2   -1830.5132792915      4.20E-09 Convergence criterion met
 Total energy in the final basis set = -1828.31619569

                    Orbital Energies (a.u.)
 --------------------------------------------------------------

 Alpha MOs
 -- Occupied --
******** -29.6402 -25.5998 -25.5864 -25.5846 -18.8980 -18.8864 -18.8817
-18.8790 -18.8626 -10.0611 -10.0603 -10.0489 -10.0459 -10.0406  -3.3247
 -2.1596  -2.1344  -2.1303  -1.0946  -1.0626  -1.0429  -1.0413  -1.0016
 -0.5779  -0.5310  -0.5238  -0.5176  -0.5137  -0.4639  -0.4596  -0.4546
 -0.4380  -0.4321  -0.4265  -0.4230  -0.4171  -0.4124  -0.4116  -0.3997
 -0.3974  -0.3934  -0.3825  -0.3753  -0.2801  -0.2768  -0.2355  -0.2273

          Ground-State Mulliken Net Atomic Charges

     Atom                 Charge (a.u.)
  ----------------------------------------
      1 Fe                   -0.487515
      2 C                     0.186768
      3 C                     0.225595
      4 C                     0.233071
      5 C                     0.210750
      6 C                     0.231124
      7 O                    -0.065680
      8 O                    -0.132759
      9 O                    -0.177394
     10 O                    -0.099300
     11 O                    -0.124659
  ----------------------------------------
  Sum of atomic charges =     0.000000

                    Cartesian Multipole Moments
 -----------------------------------------------------------------
    Charge (ESU x 10^10)
                -0.0000
    Dipole Moment (Debye)
         X       0.7374104476      Y      -0.6101053192      Z      -0.2284566408
       Tot       0.9839690571
    Quadrupole Moments (Debye-Ang)
        XX    1079.5106     XY    -449.9094     YY    -113.6140
        XZ    -156.1115     YZ     -26.9568     ZZ     -82.5951

 Frequency:      -169.78                -168.44                 -39.03
 Force Cnst:      0.2773                 0.2736                 0.0143
 Red. Mass:      16.3307                16.3700                15.9133
 IR Intens:        0.000                  0.000                  0.000
 Frequency:        61.71                 115.36                 140.73
 Force Cnst:      0.0363                 0.1219                 0.1834
 Red. Mass:      16.1927                15.5479                15.7169
 IR Intens:        0.000                  0.000                  0.000
 Frequency:       163.67                 304.12                 319.43
 Force Cnst:      0.2571                 0.6860                 0.7767
 Red. Mass:      16.2881                12.5880                12.9199
 IR Intens:        0.000                  0.000                  0.000
 Frequency:       387.19                 421.27                 439.77
 Force Cnst:      1.1338                 1.4903                 1.6185
 Red. Mass:      12.8362                14.2526                14.2036
 IR Intens:        0.000                  0.000                  0.000
 Frequency:       448.86                 479.16                 499.22
 Force Cnst:      1.5482                 1.7720                 2.0704
 Red. Mass:      13.0424                13.0998                14.1000
 IR Intens:        0.000                  0.000                  0.000
 Frequency:       510.66                 536.40                 569.61
 Force Cnst:      2.5093                 2.6925                 2.8550
 Red. Mass:      16.3325                15.8823                14.9350
 IR Intens:        0.000                  0.000                  0.000
 Frequency:       579.29                 648.59                 675.62
 Force Cnst:      2.5220                 3.9935                 4.1373
 Red. Mass:      12.7554                16.1124                15.3837
 IR Intens:        0.000                  0.000                  0.000
 Frequency:       684.63                1631.28                1814.26
 Force Cnst:      4.3044                20.7397                25.8354
 Red. Mass:      15.5867                13.2280                13.3220
 IR Intens:        0.000                  0.000                  0.000
 Frequency:      1924.93                2143.06                2346.78
 Force Cnst:     29.0756                36.0712                43.2931
 Red. Mass:      13.3183                13.3303                13.3421
 IR Intens:        0.000                  0.000                  0.000

 STANDARD THERMODYNAMIC QUANTITIES AT   298.15 K  AND     1.00 ATM

   This Molecule has  3 Imaginary Frequencies
   Zero point vibrational energy:       25.512 kcal/mol

   Atom    1 Element Fe Has Mass   55.93490
   Atom    2 Element C  Has Mass   12.00000
   Atom    3 Element C  Has Mass   12.00000
   Atom    4 Element C  Has Mass   12.00000
   Atom    5 Element C  Has Mass   12.00000
   Atom    6 Element C  Has Mass   12.00000
   Atom    7 Element O  Has Mass   15.99491
   Atom    8 Element O  Has Mass   15.99491
   Atom    9 Element O  Has Mass   15.99491
   Atom   10 Element O  Has Mass   15.99491
   Atom   11 Element O  Has Mass   15.99491
   Molecular Mass:   195.909450 amu
   Principal axes and moments of inertia in amu*Bohr^2:
                             1           2           3
    Eigenvalues --     1942.83778  2228.86839  2273.58154
          X              -0.06962    -0.57267     0.81683
          Y               0.57771     0.64439     0.50101
          Z               0.81327    -0.50677    -0.28597
   Rotational Symmetry Number is   1
   The Molecule is an Asymmetric Top
   Translational Enthalpy:        0.889 kcal/mol
   Rotational Enthalpy:           0.889 kcal/mol
   Vibrational Enthalpy:         29.507 kcal/mol
   gas constant (RT):             0.592 kcal/mol
   Translational Entropy:        41.722  cal/mol.K
   Rotational Entropy:           30.666  cal/mol.K
   Vibrational Entropy:          23.728  cal/mol.K

   Total Enthalpy:               31.877 kcal/mol
   Total Entropy:                96.116  cal/mol.K

 Total job time:  122.50s(wall), 241.77s(cpu)
        *  Thank you very much for using Q-Chem.  Have a nice day.  *
