 Q-Chem 5.4 (devel), Q-Chem, Inc., Pleasanton, CA (2021)
 Q-Chem 5.4.1 for Intel X86 EM64T Linux

User input:
--------------------------------------------------------------
$molecule
0   1
 Fe 362.72410772 11.74146729 -40.98909249    -1  0   0   0   0
C 360.13679716 12.71044725 -43.18522088    -2  0   0   0   0
C 365.95195213 11.76653627 -41.99741280    -2  0   0   0   0
C 363.17106351 14.87535996 -39.70383198    -2  0   0   0   0
C 362.08195586 10.83899381 -37.84394636    -2  0   0   0   0
C 362.46648953 8.58667088 -42.07451653    -2  0   0   0   0
O 358.63341175 13.36688482 -44.53518081    -3  0   0   0   0
O 367.88819831 12.05946715 -42.87364249    -3  0   0   0   0
O 363.38998227 16.78132379 -38.70854016    -3  0   0   0   0
O 361.72940515 10.17113104 -35.77375661    -3  0   0   0   0
O 361.98626638 6.68400406 -42.98603023    -3  0   0   0   0
H 351.91104432 36.83281228 -41.93959616      6     13    0    0    0
C 350.02452352 36.91213545 -42.96986266     1     12    14    15    16
H 349.56600862 38.80812834 -43.10388942     6     13    0    0    0
H 350.17463736 36.16665615 -44.80589578     6     13    0    0    0
C 347.98772331 35.31077698 -41.66312665     2     13    17    18    19
H 347.22762742 36.23090928 -39.91835906     6     16    0    0    0
H 346.11969493 35.44219202 -42.82598797     6     16    0    0    0
C 348.97398249 32.71561074 -41.00072918     2     16    20   21   22
H 350.21088267 31.82878879 -42.41834241     6     19    0    0    0
H 350.30290116 33.03104555 -39.36533371     6     19    0    0    0
C 346.94616751 30.92160187 -39.93078707     2     19   23   24   25
H 345.99467023 32.07435131 -38.41689786     6    22    0    0    0
H 345.41375592 30.38020491 -41.19289362     6    22    0    0    0
C 347.94062364 28.37115278 -38.67702083     2    22   26   27   28
H 348.59996704 27.27747786 -40.29288757     6    25    0    0    0
H 349.53426475 28.77723341 -37.45402943     6    25    0    0    0
C 345.87339156 26.92413258 -37.02586987     2    25   29   30   31
H 345.20660234 28.10325685 -35.45362865     6    28    0    0    0
H 344.23195468 26.76208626 -38.17320673     6    28    0    0    0
C 346.90050736 24.24604994 -36.27771739     2    28   32   33   34
H 346.85225806 23.17087085 -38.01729632     6    31    0    0    0
H 348.81485583 24.04100945 -35.63409256     6    31    0    0    0
C 345.15945178 23.22952119 -34.39185511     2    31   35   36   37
H 345.56295969 24.04634632 -32.57258113     6    34    0    0    0
H 343.16288862 23.80768574 -34.56468682     6    34    0    0    0
C 345.50140516 20.38001975 -33.73425599     2    34   38   39   40
H 345.03867354 19.22204729 -35.33078591     6    37    0    0    0
H 347.42237738 19.80138318 -33.32941727     6    37    0    0    0
C 344.26835816 19.51191528 -31.33593430     2    37   41   42   43
H 345.28641312 20.28727091 -29.69171417     6    40    0    0    0
H 342.20782682 19.95520935 -31.54560853     6    40    0    0    0
C 344.41864193 16.60078586 -31.27505535     2    40   44   45   46
H 344.15871216 15.58346468 -33.03234628     6    43    0    0    0
H 346.34392991 16.13715868 -30.76989891     6    43    0    0    0
C 342.74430970 15.29108065 -29.41670881     1    43   47   48   49
H 342.86906245 16.22842837 -27.68949709     6    46    0    0    0
H 343.34659753 13.45816685 -28.95445964     6    46    0    0    0
H 340.69459508 15.02824213 -29.86653661     6    46    0    0    0
H 352.93838086 8.48036515 -40.42524554     6     51    0    0    0
C 354.61596673 9.69444919 -40.53473491     1     50    52    53    54
H 356.19607529 8.49895492 -39.93329742     6     51    0    0    0
H 354.81474266 10.15123197 -42.56812132     6     51    0    0    0
C 354.41624378 12.10522814 -38.84406264     2     51    55    56    57
H 355.93298921 13.43012665 -39.29893255     6     54    0    0    0
H 352.71043172 13.02790224 -39.19936115     6     54    0    0    0
C 354.38015933 11.37198784 -36.02210639     2     54    58   59   60
H 355.71525813 9.90735683 -35.62395332     6     57    0    0    0
H 355.21073531 12.89198286 -35.00303063     6     57    0    0    0
C 351.61448817 10.85104132 -34.84447937     2     57   61   62   63
H 350.24584499 12.28967040 -35.26496296     6    60    0    0    0
H 351.03441116 9.22714336 -35.88866149     6    60    0    0    0
C 351.79148298 10.51506308 -31.92864603     2    60   64   65   66
H 353.11729967 8.99518643 -31.34721206     6    63    0    0    0
H 352.43485524 12.30357823 -31.25527512     6    63    0    0    0
C 349.31188032 10.16661133 -30.63362750     2    63   67   68   69
H 349.65852052 10.20191676 -28.67281777     6    66    0    0    0
H 348.20036065 11.73862270 -31.03025438     6    66    0    0    0
C 348.08739552 7.76957449 -31.45185040     2    66   70   71   72
H 348.30343726 7.33765817 -33.49968322     6    69    0    0    0
H 349.00444615 6.16528264 -30.42154211     6    69    0    0    0
C 345.44708614 7.67663875 -30.65220462     2    69   73   74   75
H 345.17211566 8.28845198 -28.74007099     6    72    0    0    0
H 344.44960802 9.18911207 -31.66325997     6    72    0    0    0
C 344.49396540 4.99014795 -31.26787530     2    72   76   77   78
H 344.89690803 4.17390256 -33.15187370     6    75    0    0    0
H 345.43102365 3.87420953 -29.82122593     6    75    0    0    0
C 341.65630491 4.75274168 -30.68497104     2    75   79   80   81
H 341.18634852 5.35660513 -28.72103231     6    78    0    0    0
H 340.95371888 5.94154373 -32.11380940     6    78    0    0    0
C 340.76569850 2.10395259 -31.42355729     2    78   82   83   84
H 340.94600664 1.97486744 -33.39009083     6    81    0    0    0
H 341.93430383 0.56585575 -30.81692813     6    81    0    0    0
C 338.08761699 1.50283836 -30.49691288     1    81   85   86   87
H 337.49639130 -0.24390844 -31.21181893     6    84    0    0    0
H 336.77052875 3.12591935 -31.14714245     6    84    0    0    0
H 338.07488898 1.50592607 -28.48689871     6    84    0    0    0
H 345.11106393 43.42730914 -23.10041751     6     89    0    0    0
C 343.18840855 43.03382812 -22.28645345     1     88    90    91    92
H 343.20780628 43.32106926 -20.18993984     6     89    0    0    0
H 341.82560045 44.41467331 -23.06994633     6     89    0    0    0
C 342.49960912 40.35748236 -22.84981342     2     89    93    94    95
H 342.70496020 40.10532534 -24.88129761     6     92    0    0    0
H 343.76637488 38.89979023 -22.20473901     6     92    0    0    0
C 339.90301196 39.48229999 -21.78890802     2     92    96   97   98
H 339.92272241 40.04257987 -19.79012582     6     95    0    0    0
H 338.29010633 40.38487554 -22.60748716     6     95    0    0    0
C 339.35922990 36.54543264 -22.13291380     2     95   99   100   101
H 339.88304140 36.07131587 -24.19329628     6    98    0    0    0
H 340.53481701 35.39310111 -20.98134950     6    98    0    0    0
C 336.57231425 35.78899557 -21.61667870     2    98   102   103   104
H 336.28206450 36.58616543 -19.67677618     6    101    0    0    0
H 335.13193837 36.86338442 -22.69306252     6    101    0    0    0
C 336.03901388 32.92225372 -22.01553668     2    101   105   106   107
H 336.78794727 32.59569757 -23.88320841     6    104    0    0    0
H 337.29322951 31.89956598 -20.60780749     6    104    0    0    0
C 333.33205495 31.86433304 -21.88687336     2    104   108   109   110
H 332.42438250 32.29708721 -20.07638912     6    107    0    0    0
H 332.16215245 32.81491220 -23.27650039     6    107    0    0    0
C 333.26090171 29.12419728 -22.59825618     2    107   111   112   113
H 334.46785275 28.82029451 -24.41627937     6    110    0    0    0
H 333.89815301 28.04485146 -20.98317775     6    110    0    0    0
C 330.46260363 28.25036075 -22.76662941     2    110   114   115   116
H 330.07392259 27.50204363 -20.93658850     6    113    0    0    0
H 329.22164950 29.86438744 -23.29547447     6    113    0    0    0
C 330.01074153 25.94691324 -24.41093489     2    113   117   118   119
H 330.08005987 26.38792085 -26.40366618     6    116    0    0    0
H 331.60506727 24.64090564 -24.06705316     6    116    0    0    0
C 327.44020033 24.55613419 -23.76660136     2    116   120   121   122
H 327.51449923 22.92768881 -24.96826037     6    119    0    0    0
H 327.49609021 23.80049654 -21.82689767     6    119    0    0    0
C 324.92134450 26.01035723 -24.10848113     1    119   123   124   125
H 323.33306809 24.64043171 -24.23342874     6    122    0    0    0
H 324.94593589 27.03544959 -25.93680374     6    122    0    0    0
H 324.65739519 27.45444014 -22.72632131     6    122    0    0    0
H 359.77661460 29.00560316 -16.56486037     6     127    0    0    0
C 360.16137576 28.41619132 -18.52218576     1     126    128    129    130
H 360.38353117 26.42506743 -18.51180026     6     127    0    0    0
H 358.46294690 28.65355717 -19.71442725     6     127    0    0    0
C 362.38315769 29.78732780 -19.78957766     2     127    131    132    133
H 361.73501411 31.44948260 -20.89110127     6     130    0    0    0
H 363.46200809 30.81802426 -18.50001053     6     130    0    0    0
C 364.00264943 27.77723434 -21.08456621     2     130    134   135   136
H 364.45968676 26.18752030 -19.65565649     6     133    0    0    0
H 362.99146740 26.93936045 -22.58426830     6     133    0    0    0
C 366.50502941 29.02889424 -22.19489418     2     133   137   138   139
H 365.94826593 30.45522165 -23.42709152     6    136    0    0    0
H 367.54841051 30.10892919 -20.68458459     6    136    0    0    0
C 368.12710889 27.23457122 -23.79710246     2    136   140   141   142
H 368.88068692 25.65749612 -22.76491610     6    139    0    0    0
H 367.02094128 26.38739227 -25.42317453     6    139    0    0    0
C 370.51254464 28.53198729 -24.79322816     2    139   143   144   145
H 369.96299853 30.45191741 -25.68585090     6    142    0    0    0
H 371.71530066 29.01891236 -23.11348984     6    142    0    0    0
C 371.88777831 26.86747242 -26.71961641     2    142   146   147   148
H 372.26483051 25.13988836 -25.70120483     6    145    0    0    0
H 370.51897740 26.29637566 -28.27681441     6    145    0    0    0
C 374.31053178 27.95762603 -27.78139837     2    145   149   150   151
H 374.02710000 29.50990010 -29.00239151     6    148    0    0    0
H 375.87597589 28.49858916 -26.42516036     6    148    0    0    0
C 375.66720746 25.94630248 -29.54183309     2    148   152   153   154
H 375.93218358 24.06761731 -28.64996708     6    151    0    0    0
H 374.27556295 25.65823082 -30.98225060     6    151    0    0    0
C 378.04764519 26.81761778 -30.79278904     2    151   155   156   157
H 377.92051282 28.45659239 -32.03460560     6    154    0    0    0
H 379.47030709 27.35809162 -29.36176353     6    154    0    0    0
C 378.99073396 24.84527291 -32.64969141     2    154   158   159   160
H 379.23987160 22.96287564 -31.73384814     6    157    0    0    0
H 377.73454288 24.50777300 -34.22122954     6    157    0    0    0
C 381.54918198 25.66619172 -33.82781867     1    157   161   162   163
H 382.43638952 24.30278561 -35.17960795     6    160    0    0    0
H 382.94996811 25.77267059 -32.37900906     6    160    0    0    0
H 381.35385465 27.51902423 -34.82110617     6    160    0    0    0
H 350.16795193 17.60560268 -4.26898379     6     165    0    0    0
C 352.09617027 18.03787959 -4.61680853     1     164    166    167    168
H 352.72894106 18.63234555 -2.76887531     6     165    0    0    0
H 353.15773858 16.36688567 -5.18015562     6     165    0    0    0
C 352.27969786 20.14814490 -6.61385124     2     165    169    170    171
H 351.26749176 19.73378906 -8.36185243     6     168    0    0    0
H 351.53305376 21.98015876 -5.83219383     6     168    0    0    0
C 355.09640981 20.64609591 -7.15113733     2     168    172   173   174
H 356.15885693 20.90164648 -5.43350923     6     171    0    0    0
H 355.96503277 18.96764501 -7.81742693     6     171    0    0    0
C 355.60469773 22.78533548 -8.94617207     2     171   175   176   177
H 354.56188398 22.43890533 -10.77807824     6    174    0    0    0
H 355.30556656 24.70018570 -8.07491257     6    174    0    0    0
C 358.43281240 22.92177295 -9.46174621     2    174   178   179   180
H 359.54341499 22.40021460 -7.69074827     6    177    0    0    0
H 358.80429403 21.79855245 -11.13270978     6    177    0    0    0
C 359.35848023 25.61572522 -10.37291181     2    177   181   182   183
H 358.04306766 26.10242750 -11.89763082     6    180    0    0    0
H 359.00864153 27.12014745 -9.13665671     6    180    0    0    0
C 362.19013189 25.64550566 -11.23828172     2    180   184   185   186
H 363.49957361 24.58607799 -10.06746189     6    183    0    0    0
H 362.08000008 24.50235448 -13.02302374     6    183    0    0    0
C 363.52630078 28.18380323 -11.80243091     2    183   187   188   189
H 362.70801630 29.65445725 -12.93362481     6    186    0    0    0
H 364.18662269 29.23318059 -10.07054784     6    186    0    0    0
C 366.10359097 27.51249622 -13.04184805     2    186   190   191   192
H 367.06948914 25.91624640 -12.11508376     6    189    0    0    0
H 365.81250505 26.90161611 -15.05257509     6    189    0    0    0
C 368.10276633 29.53940850 -13.05899535     2    189   193   194   195
H 367.25485969 31.40905030 -12.93784585     6    192    0    0    0
H 369.24912600 29.59675296 -11.34673756     6    192    0    0    0
C 369.96245548 29.08475609 -15.14946642     2    192   196   197   198
H 371.16225256 27.36211080 -15.05242015     6    195    0    0    0
H 368.85243777 28.76144891 -16.94383975     6    195    0    0    0
C 371.92432037 31.04995902 -15.53099880     1    195   199   200   201
H 372.99248477 31.21084158 -13.76749217     6    198    0    0    0
H 371.20838352 32.97312322 -15.91163992     6    198    0    0    0
H 373.21701453 30.45806698 -16.88326715     6    198    0    0    0
H 360.65609345 10.91319893 -6.22794306     6     203    0    0    0
C 359.46775215 10.79334605 -4.45522751     1     202    204    205    206
H 359.82187461 9.13710241 -3.31607394     6     203    0    0    0
H 360.18800946 12.24194798 -3.13472327     6     203    0    0    0
C 356.62147130 11.17313343 -4.93540886     2     203    207    208    209
H 355.87708748 11.11746023 -2.99451398     6     206    0    0    0
H 356.32605464 13.09570718 -5.67665772     6     206    0    0    0
C 355.28996892 9.47146650 -6.99110623     2     206    210   211   212
H 353.42093422 10.15133439 -7.43932406     6     209    0    0    0
H 356.37384086 9.61981980 -8.76010697     6     209    0    0    0
C 355.38079403 6.69812774 -6.09782849     2     209   213   214   215
H 357.40877790 6.29542817 -5.93901866     6    212    0    0    0
H 354.71179472 6.59177012 -4.19308404     6    212    0    0    0
C 353.92991881 4.48966136 -7.41564348     2    212   216   217   218
H 351.97873795 5.21577186 -7.74816284     6    215    0    0    0
H 354.57580541 4.37540502 -9.43234454     6    215    0    0    0
C 354.04385456 2.16559898 -5.99627006     2    215   219   220   221
H 355.94157522 1.82264958 -5.18384981     6    218    0    0    0
H 352.80360166 2.37922465 -4.51599953     6    218    0    0    0
C 353.40508076 -0.16690172 -7.56361079     2    218   222   223   224
H 351.23454825 -0.41043777 -7.61530378     6    221    0    0    0
H 354.16066382 0.01712995 -9.48783988     6    221    0    0    0
C 354.54451408 -2.50099625 -6.30815204     2    221   225   226   227
H 356.59576913 -2.45682523 -6.45356762     6    224    0    0    0
H 354.10656457 -2.52527325 -4.29007512     6    224    0    0    0
C 353.35701300 -4.79510648 -7.56141485     2    224   228   229   230
H 351.25690061 -4.56358877 -7.55575611     6    227    0    0    0
H 353.95549435 -5.05762387 -9.56387953     6    227    0    0    0
C 354.23654748 -7.06234891 -6.07668460     2    227   231   232   233
H 356.32034139 -7.33711866 -6.07051582     6    230    0    0    0
H 353.74360953 -6.84872076 -4.07982614     6    230    0    0    0
C 353.33512109 -9.63424458 -6.99756844     2    230   234   235   236
H 353.30185132 -9.88453091 -9.10096839     6    233    0    0    0
H 354.51895217 -11.18908944 -6.05067644     6    233    0    0    0
C 350.54707170 -10.31045297 -6.07789108     1    233   237   238   239
H 350.13896075 -12.32014075 -6.33168304     6    236    0    0    0
H 349.50297689 -8.91372182 -7.05602514     6    236    0    0    0
H 350.22151513 -9.91859618 -4.07549087     6    236    0    0    0
H 337.39594957 8.95397316 -32.48614298     6     241    0    0    0
C 338.38475348 10.40882512 -31.45214685     1     240    242    243    244
H 340.25566762 9.78638302 -31.18978945     6     241    0    0    0
H 338.50644331 12.06875174 -32.53407171     6     241    0    0    0
C 337.18002276 10.55603436 -28.76125224     2     241    245    246    247
H 337.58706085 8.82956672 -27.64777557     6     244    0    0    0
H 338.09874368 11.97516479 -27.72110747     6     244    0    0    0
C 334.34630203 11.39875988 -28.83620523     2     244    248   249   250
H 333.92271139 12.19505344 -27.03083672     6     247    0    0    0
H 334.08697625 12.88737304 -30.15908108     6     247    0    0    0
C 332.25691636 9.39139453 -29.58848206     2     247   251   252   253
H 330.35249035 10.27332170 -29.28689381     6    250    0    0    0
H 332.33747544 8.68867682 -31.52526261     6    250    0    0    0
C 332.55148254 7.12215711 -27.88275702     2    250   254   255   256
H 334.34174891 6.40205022 -28.74259627     6    253    0    0    0
H 333.00944562 7.82166225 -25.92835243     6    253    0    0    0
C 330.56143895 5.08995881 -28.06922712     2    253   257   258   259
H 330.68192618 3.93855339 -26.39567421     6    256    0    0    0
H 328.69023118 5.77076113 -28.07419035     6    256    0    0    0
C 330.83116014 3.19990195 -30.23195849     2    256   260   261   262
H 330.41150186 4.13933366 -31.99185133     6    259    0    0    0
H 332.71701760 2.49332654 -30.35642981     6    259    0    0    0
C 329.12233527 0.93416897 -29.91851414     2    259   263   264   265
H 329.96132995 0.01451893 -28.12244822     6    262    0    0    0
H 327.22430055 1.56411817 -29.47503102     6    262    0    0    0
C 329.09180607 -1.31264836 -31.77592037     2    262   266   267   268
H 327.88448933 -2.66749016 -30.82771149     6    265    0    0    0
H 327.93642904 -1.01230606 -33.49789858     6    265    0    0    0
C 331.67648997 -2.38885461 -32.59358988     2    265   269   270   271
H 333.07344884 -0.82906271 -33.26231423     6    268    0    0    0
H 332.70805379 -3.20676858 -30.98224803     6    268    0    0    0
C 331.20256908 -4.30858395 -34.74712630     2    268   272   273   274
H 329.90634032 -5.78144894 -34.13303006     6    271    0    0    0
H 330.15665642 -3.18714390 -36.05341639     6    271    0    0    0
C 333.64188227 -5.39802128 -35.82395840     1    271   275   276   277
H 335.36824115 -4.05107907 -35.85491726     6    274    0    0    0
H 333.17510675 -6.15262054 -37.65087660     6    274    0    0    0
H 334.43221431 -6.99371141 -34.74432486     6    274    0    0    0
H 345.69030183 29.47865447 -8.47096110     6     279    0    0    0
C 344.89306926 27.63529093 -8.28794533     1     278    280    281    282
H 345.14672601 26.80672952 -6.31960913     6     279    0    0    0
H 342.96122240 27.93961006 -8.62779621     6     279    0    0    0
C 345.97437160 25.60494806 -10.14148326     2     279    283    284    285
H 345.53097614 26.38043793 -11.97403066     6     282    0    0    0
H 347.86841833 25.65700416 -10.01563375     6     282    0    0    0
C 345.07306620 22.72364100 -10.09482937     2     282    286   287   288
H 345.18536103 22.07535170 -8.08862847     6     285    0    0    0
H 343.10172641 22.63532629 -10.85790484     6     285    0    0    0
C 346.85350300 21.03770751 -11.49371273     2     285   289   290   291
H 346.46083076 21.43238720 -13.46741471     6    288    0    0    0
H 348.81130730 21.68494519 -11.31025784     6    288    0    0    0
C 346.44790848 18.25005851 -11.18560853     2    288   292   293   294
H 346.47813732 18.00146617 -9.07108449     6    291    0    0    0
H 344.62280707 17.84356621 -11.88883248     6    291    0    0    0
C 348.51649499 16.43570209 -12.41045508     2    291   295   296   297
H 348.75353306 16.93775495 -14.31342036     6    294    0    0    0
H 350.28946532 17.01931009 -11.59865866     6    294    0    0    0
C 347.82156813 13.71855097 -12.41128495     2    294   298   299   300

   18   -1830.5160158816      3.93E-09 Convergence criterion met
 Total energy in the final basis set = -1828.25354381
 Total job time:  17.38s(wall), 30.79s(cpu)
        *  Thank you very much for using Q-Chem.  Have a nice day.  *

User input: 2 of 2

                  Welcome to Q-Chem
     A Quantum Leap Into The Future Of Chemistry

 Q-Chem 5.4 (devel), Q-Chem, Inc., Pleasanton, CA (2021)

 E. Epifanovsky,  A. T. B. Gilbert,  Xintian Feng,  Joonho Lee,  Yuezhi Mao,
 N. Mardirossian,  P. Pokhilko,  A. White,  M. Wormit,  M. P. Coons,
 A. L. Dempwolff,  Zhengting Gan,  D. Hait,  P. R. Horn,  L. D. Jacobson,
 I. Kaliman,  J. Kussmann,  A. W. Lange,  Ka Un Lao,  D. S. Levine,  Jie Liu,
 S. C. McKenzie,  A. F. Morrison,  K. Nanda,  F. Plasser,  D. R. Rehn,
 M. L. Vidal,  Zhi-Qiang You,  Ying Zhu,  B. Alam,  B. Albrecht,
 A. Aldossary,  E. Alguire,  J. H. Andersen,  D. Barton,  K. Begam,  A. Behn,
 Y. A. Bernard,  E. J. Berquist,  H. Burton,  A. Carreras,  K. Carter-Fenk,
 R. Chakraborty,  A. D. Chien,  K. D. Closser,  V. Cofer-Shabica,
 S. Dasgupta,  Jia Deng,  M. de Wergifosse,  M. Diedenhofen,  Hainam Do,
 S. Ehlert,  Po-Tung Fang,  S. Fatehi,  Qingguo Feng,  T. Friedhoff,
 J. Gayvert,  Qinghui Ge,  G. Gidofalvi,  M. Goldey,  J. Gomes,
 C. Gonzalez-Espinoza,  S. Gulania,  A. Gunina,  M. W. D. Hanson-Heine,
 P. H. P. Harbach,  A. W. Hauser,  M. F. Herbst,  M. Hernandez Vera,
 M. Hodecker,  Z. C. Holden,  S. Houck,  Xunkun Huang,  Kerwin Hui,
 B. C. Huynh,  M. Ivanov,  Hyunjun Ji,  Hanjie Jiang,  B. Kaduk,  S. Kaehler,
 K. Khistyaev,  Jaehoon Kim,  P. Klunzinger,  Z. Koczor-Benda,
 Joong Hoon Koh,  D. Kosenkov,  L. Koulias,  T. Kowalczyk,  C. M. Krauter,
 K. Kue,  A. Kunitsa,  T. Kus,  A. Landau,  K. V. Lawler,  D. Lefrancois,
 S. Lehtola,  Rain Li,  Yi-Pei Li,  Jiashu Liang,  M. Liebenthal,
 Hung-Hsuan Lin,  You-Sheng Lin,  Fenglai Liu,  Kuan-Yu Liu,
 M. Loipersberger,  A. Luenser,  A. Manjanath,  P. Manohar,  E. Mansoor,
 S. F. Manzer,  Shan-Ping Mao,  A. V. Marenich,  T. Markovich,  S. Mason,
 S. A. Maurer,  P. F. McLaughlin,  M. F. S. J. Menger,  J.-M. Mewes,
 S. A. Mewes,  P. Morgante,  J. W. Mullinax,  K. J. Oosterbaan,  G. Paran,
 Alexander C. Paul,  Suranjan K. Paul,  F. Pavosevic,  Zheng Pei,  S. Prager,
 E. I. Proynov,  E. Ramos,  B. Rana,  A. E. Rask,  A. Rettig,  R. M. Richard,
 F. Rob,  E. Rossomme,  T. Scheele,  M. Scheurer,  M. Schneider,
 N. Sergueev,  S. M. Sharada,  W. Skomorowski,  D. W. Small,  C. J. Stein,
 Yu-Chuan Su,  E. J. Sundstrom,  Zhen Tao,  J. Thirman,  T. Tsuchimochi,
 N. M. Tubman,  S. P. Veccham,  O. Vydrov,  J. Wenzel,  J. Witte,  A. Yamada,
 Kun Yao,  S. Yeganeh,  S. R. Yost,  A. Zech,  Igor Ying Zhang,  Xing Zhang,
 Yu Zhang,  D. Zuev,  A. Aspuru-Guzik,  A. T. Bell,  N. A. Besley,
 K. B. Bravaya,  B. R. Brooks,  D. Casanova,  Jeng-Da Chai,  S. Coriani,
 C. J. Cramer,  A. E. DePrince, III,  R. A. DiStasio Jr.,  A. Dreuw,
 B. D. Dunietz,  T. R. Furlani,  W. A. Goddard III,  S. Grimme,
 S. Hammes-Schiffer,  T. Head-Gordon,  W. J. Hehre,  Chao-Ping Hsu,
 T.-C. Jagau,  Yousung Jung,  A. Klamt,  Jing Kong,  D. S. Lambrecht,
 WanZhen Liang,  N. J. Mayhall,  C. W. McCurdy,  J. B. Neaton,
 C. Ochsenfeld,  J. A. Parkhill,  R. Peverati,  V. A. Rassolov,  Yihan Shao,
 L. V. Slipchenko,  T. Stauch,  R. P. Steele,  J. E. Subotnik,
 A. J. W. Thom,  A. Tkatchenko,  D. G. Truhlar,  T. Van Voorhis,
 T. A. Wesolowski,  K. B. Whaley,  H. L. Woodcock III,  P. M. Zimmerman,
 S. Faraji,  P. M. W. Gill,  M. Head-Gordon,  J. M. Herbert,  A. I. Krylov

 Additional authors for Version 5.4.1:
 S. Kotaru,  Shaozhi Li,  Xiangyuan Li,  F. Matz,  A. Molle,  Haisheng Ren,
 Yingli Su,  Hung-Yi Tsai,  C. Utku,  Fang Wang

 Contributors to earlier versions of Q-Chem not listed above:
 R. D. Adamson,  B. Austin,  R. Baer,  J. Baker,  G. J. O. Beran,
 K. Brandhorst,  S. T. Brown,  E. F. C. Byrd,  A. K. Chakraborty,
 G. K. L. Chan,  Chun-Min Chang,  Yunqing Chen,  C.-L. Cheng,
 Siu Hung Chien,  D. M. Chipman,  D. L. Crittenden,  H. Dachsel,
 R. J. Doerksen,  A. D. Dutoi,  R. G. Edgar,  J. Fosso-Tande,
 L. Fusti-Molnar,  D. Ghosh,  A. Ghysels,  A. Golubeva-Zadorozhnaya,
 J. Gonthier,  M. S. Gordon,  S. R. Gwaltney,  G. Hawkins,  J. E. Herr,
 A. Heyden,  S. Hirata,  E. G. Hohenstein,  G. Kedziora,  F. J. Keil,
 C. Kelley,  Jihan Kim,  R. A. King,  R. Z. Khaliullin,  P. P. Korambath,
 W. Kurlancheek,  A. Laurent,  A. M. Lee,  M. S. Lee,  S. V. Levchenko,
 Ching Yeh Lin,  D. Liotard,  E. Livshits,  R. C. Lochan,  I. Lotan,
 L. A. Martinez-Martinez,  P. E. Maslen,  N. Nair,  D. P. O'Neill,
 D. Neuhauser,  E. Neuscamman,  C. M. Oana,  R. Olivares-Amaya,  R. Olson,
 T. M. Perrine,  B. Peters,  P. A. Pieniazek,  A. Prociuk,  Y. M. Rhee,
 J. Ritchie,  M. A. Rohrdanz,  E. Rosta,  N. J. Russ,  H. F. Schaefer III,
 M. W. Schmidt,  N. E. Schultz,  S. Sharma,  N. Shenvi,  C. D. Sherrill,
 A. C. Simmonett,  A. Sodt,  T. Stein,  D. Stuck,  K. S. Thanthiriwatte,
 V. Vanovschi,  L. Vogt,  Tao Wang,  A. Warshel,  M. A. Watson,
 C. F. Williams,  Q. Wu,  X. Xu,  Jun Yang,  W. Zhang,  Yan Zhao

 Please cite Q-Chem as follows:
 Y. Shao et al., Mol. Phys. 113, 184-215 (2015)
 DOI: 10.1080/00268976.2014.952696

 Q-Chem 5.4.1 for Intel X86 EM64T Linux

 Parts of Q-Chem use Armadillo 9.900.5 (Nocturnal Misbehaviour).
 http://arma.sourceforge.net/

 Q-Chem begins on Wed Jun  1 23:30:40 2022

 Host: p09r14n13.grace.hpc.yale.internal
0

     Scratch files written to /home/tl686/scratch60/qchem_dev/scratch/qchem244631//
 Processing $rem in /home/tl686/qchem_dev/qchem/config/preferences:
 Processing $rem in /home/tl686/.qchemrc:
Applying user defined connections for MM calculations
The previous job contains 0 fragments, simply inherited here

 Checking the input file for inconsistencies... 	...done.

--------------------------------------------------------------
User input:
--------------------------------------------------------------

$molecule
READ
$end

$qm_atoms
1:11
$end

$force_field_params
NumAtomTypes 3
AtomType -1   0.0238     3.11   0.2868
AtomType -2   0.07124    3.30   0.6597
AtomType -3  -0.0760     3.09   0.1434
$end

$rem
     JOBTYPE  freq
     METHOD   bp86
     BASIS    def2-msvp
     MAX_SCF_CYCLES   800
     INPUT_BOHR TRUE
     SYM_IGNORE TRUE
     SCF_GUESS     read
     user_connect            true
     qm_mm_interface         ONIOM
     force_field             oplsaa
$end

--------------------------------------------------------------

    2   -1830.5160158827      1.58E-09 Convergence criterion met
 Total energy in the final basis set = -1828.25354381

                    Orbital Energies (a.u.)
 --------------------------------------------------------------

 Alpha MOs
 -- Occupied --
******** -29.6275 -25.5874 -25.5732 -25.5718 -18.8853 -18.8809 -18.8806
-18.8749 -18.8663 -10.0501 -10.0464 -10.0369 -10.0367 -10.0346  -3.3134
 -2.1501  -2.1223  -2.1187  -1.0744  -1.0698  -1.0656  -1.0642  -1.0393
 -0.5701  -0.5236  -0.5160  -0.5143  -0.5093  -0.4576  -0.4473  -0.4452
 -0.4398  -0.4368  -0.4337  -0.4299  -0.4251  -0.4193  -0.4187  -0.4076
 -0.4073  -0.3984  -0.3945  -0.3782  -0.2724  -0.2688  -0.2298  -0.2140

          Ground-State Mulliken Net Atomic Charges

     Atom                 Charge (a.u.)
  ----------------------------------------
      1 Fe                   -0.488564
      2 C                     0.207800
      3 C                     0.202683
      4 C                     0.187013
      5 C                     0.201051
      6 C                     0.174866
      7 O                    -0.074776
      8 O                    -0.091255
      9 O                    -0.092585
     10 O                    -0.126204
     11 O                    -0.100027
  ----------------------------------------
  Sum of atomic charges =     0.000000

                    Cartesian Multipole Moments
 -----------------------------------------------------------------
    Charge (ESU x 10^10)
                -0.0000
    Dipole Moment (Debye)
         X       0.1229756340      Y       0.1110041042      Z      -0.2659187287
       Tot       0.3133012735
    Quadrupole Moments (Debye-Ang)
        XX     -21.2537     XY      21.4116     YY     -66.8251
        XZ     -53.1621     YZ      -3.8568     ZZ     -58.8215
