 Q-Chem 5.4 (devel), Q-Chem, Inc., Pleasanton, CA (2021)
 Q-Chem 5.4.1 for Intel X86 EM64T Linux

User input:
--------------------------------------------------------------
$molecule
0   1
 Fe -1428.55004985 14.95135768 38.56412344    -1  0   0   0   0
C -1427.22792424 16.06403466 35.58186889    -2  0   0   0   0
C -1428.99584301 15.10779940 42.13413391    -2  0   0   0   0
C -1430.39170489 17.69832065 38.43525092    -2  0   0   0   0
C -1430.69647695 12.50550690 37.72361329    -2  0   0   0   0
C -1425.43980513 13.54051729 39.20928857    -2  0   0   0   0
O -1426.40279982 16.99140993 33.76635433    -3  0   0   0   0
O -1428.93285701 15.42098310 44.27233300    -3  0   0   0   0
O -1431.80855751 19.47625994 38.56747730    -3  0   0   0   0
O -1432.05132082 10.92956656 36.91172668    -3  0   0   0   0
O -1423.47666845 12.62705508 39.42306984    -3  0   0   0   0
H -1447.20420287 38.41223173 29.82273390      6     13    0    0    0
C -1446.65931068 39.23726268 28.00331152     1     12    14    15    16
H -1447.15052076 41.24944848 28.12138613     6     13    0    0    0
H -1444.64568723 39.10699444 27.50397682     6     13    0    0    0
C -1447.99996375 37.86588294 25.75061029     2     13    17    18    19
H -1450.09633734 37.55234641 25.91746398     6     16    0    0    0
H -1447.79317200 38.74504176 23.90091977     6     16    0    0    0
C -1447.02044863 35.16479772 25.51592697     2     16    20   21   22
H -1445.02605181 35.15126669 25.39967048     6     19    0    0    0
H -1447.67172821 34.17504555 27.12898137     6     19    0    0    0
C -1448.00851174 33.75847215 23.09879829     2     19   23   24   25
H -1449.93770445 33.15806798 23.38543046     6    22    0    0    0
H -1448.03840589 35.18526984 21.56163960     6    22    0    0    0
C -1446.29918733 31.71475907 22.31749060     2    22   26   27   28
H -1444.34857811 32.38002909 22.01274764     6    25    0    0    0
H -1446.28876595 30.21310530 23.63558793     6    25    0    0    0
C -1446.94855335 30.42059540 19.78674463     2    25   29   30   31
H -1448.68579357 29.41160004 20.17193895     6    28    0    0    0
H -1447.12960873 31.79600667 18.33488054     6    28    0    0    0
C -1444.95689467 28.32093972 19.04939172     2    28   32   33   34
H -1443.25600099 29.39510577 18.89481866     6    31    0    0    0
H -1444.66186346 26.94489933 20.64508115     6    31    0    0    0
C -1445.79760291 26.87833498 16.52375837     2    31   35   36   37
H -1447.83252819 26.43825018 16.36685972     6    34    0    0    0
H -1445.55670997 28.16673811 14.93990522     6    34    0    0    0
C -1444.12528310 24.46237183 16.09418702     2    34   38   39   40
H -1442.28950159 24.79734950 16.67062056     6    37    0    0    0
H -1444.70666392 22.79655246 17.29446924     6    37    0    0    0
C -1444.21211239 23.50495911 13.37392271     2    37   41   42   43
H -1446.01485661 23.10980635 12.70073792     6    40    0    0    0
H -1443.53521893 25.16407997 12.22196423     6    40    0    0    0
C -1442.41506304 21.27480061 12.86871968     2    40   44   45   46
H -1440.53324082 21.59474606 13.72699614     6    43    0    0    0
H -1443.19189120 19.45477675 13.77821794     6    43    0    0    0
C -1441.92387452 20.74744402 10.12952488     1    43   47   48   49
H -1440.80644259 19.00813580 9.70174767     6    46    0    0    0
H -1440.79845593 22.38989716 9.37434392     6    46    0    0    0
H -1443.63162331 20.48410688 8.89465206     6    46    0    0    0
H -1425.89046184 12.68184612 26.25076738     6     51    0    0    0
C -1426.42346469 13.74243687 27.90376566     1     50    52    53    54
H -1427.43161288 12.42688060 29.26963906     6     51    0    0    0
H -1424.72864857 14.42702608 28.77886352     6     51    0    0    0
C -1428.18747326 16.00417502 27.29218235     2     51    55    56    57
H -1428.97682663 16.82291563 28.96067250     6     54    0    0    0
H -1427.22723985 17.53513906 26.40546544     6     54    0    0    0
C -1430.28994078 15.13832139 25.50372103     2     54    58   59   60
H -1431.02957329 13.42359413 26.24620264     6     57    0    0    0
H -1431.95176235 16.38787595 25.44592353     6     57    0    0    0
C -1429.46881899 15.26774603 22.75366707     2     57   61   62   63
H -1428.98536654 17.26074568 22.29942576     6    60    0    0    0
H -1428.00469931 13.88826416 22.26434112     6    60    0    0    0
C -1431.82531343 14.55462721 21.14070514     2    60   64   65   66
H -1432.47472678 12.65136059 21.55600367     6    63    0    0    0
H -1433.34133025 15.84231261 21.63504211     6    63    0    0    0
C -1431.31154387 14.81514287 18.35905272     2    63   67   68   69
H -1433.11350942 15.15475715 17.30571361     6    66    0    0    0
H -1429.98030943 16.30678467 18.03721323     6    66    0    0    0
C -1430.13195643 12.48181782 17.07545358     2    66   70   71   72
H -1428.14759916 12.29214793 17.80175248     6    69    0    0    0
H -1431.19482237 10.82907953 17.66918486     6    69    0    0    0
C -1429.70200224 12.64672292 14.17766644     2    69   73   74   75
H -1431.53538585 13.16716773 13.48382056     6    72    0    0    0
H -1428.38211866 14.18727693 13.82000181     6    72    0    0    0
C -1428.83595141 10.09063113 13.04542258     2    72   76   77   78
H -1427.08665952 9.51631300 13.92662813     6    75    0    0    0
H -1430.25113809 8.55165070 13.41400809     6    75    0    0    0
C -1428.37878330 10.40925968 10.18897523     2    75   79   80   81
H -1430.14911196 10.35331346 9.20320811     6    78    0    0    0
H -1427.74991500 12.46337548 9.88016840     6    78    0    0    0
C -1426.74218856 8.28844916 9.21214239     2    78   82   83   84
H -1424.71412927 8.90189794 9.56196049     6    81    0    0    0
H -1427.01752097 6.51944297 10.18741673     6    81    0    0    0
C -1427.01595099 8.07488525 6.35045031     1    81   85   86   87
H -1426.12385439 6.54835654 5.81670811     6    84    0    0    0
H -1426.21237288 9.69797767 5.36675890     6    84    0    0    0
H -1428.88333609 7.65995701 5.76176821     6    84    0    0    0
H -1453.43236216 32.50047294 30.65821640     6     89    0    0    0
C -1453.47941768 30.44297447 29.99694733     1     88    90    91    92
H -1452.43603738 29.28679362 31.37132869     6     89    0    0    0
H -1455.55780140 29.83348068 30.22759905     6     89    0    0    0
C -1452.62974575 30.13231455 27.30653578     2     89    93    94    95
H -1453.30093516 31.70994110 26.03751672     6     92    0    0    0
H -1450.51057665 29.91986230 27.13290739     6     92    0    0    0
C -1453.77559078 27.76098605 26.01379499     2     92    96   97   98
H -1453.01944282 26.08641523 26.88562765     6     95    0    0    0
H -1455.82659862 27.81347356 26.17814694     6     95    0    0    0
C -1453.17452653 27.52340626 23.15657236     2     95   99   100   101
H -1454.00845716 29.08834474 22.05576988     6    98    0    0    0
H -1451.03734073 27.72512801 22.98449825     6    98    0    0    0
C -1454.18221365 25.12045039 22.13248358     2    98   102   103   104
H -1452.96088989 23.60816385 22.53884718     6    101    0    0    0
H -1456.04669843 24.75799701 22.99651712     6    101    0    0    0
C -1454.42697307 25.30926489 19.16445134     2    101   105   106   107
H -1455.96667711 26.66142959 18.84133226     6    104    0    0    0
H -1452.73561401 26.27132100 18.47001620     6    104    0    0    0
C -1454.78265492 22.73665989 17.89898298     2    104   108   109   110
H -1452.93589162 21.75640609 17.66748322     6    107    0    0    0
H -1455.84371269 21.57168112 19.25043612     6    107    0    0    0
C -1456.15962589 23.05166233 15.35053686     2    107   111   112   113
H -1458.03924530 23.32443397 15.73561401     6    110    0    0    0
H -1455.72811721 24.81431503 14.33828037     6    110    0    0    0
C -1455.49720730 20.72014710 13.58908630     2    110   114   115   116
H -1453.40026037 20.75917534 13.26258142     6    113    0    0    0
H -1455.82785167 19.11815389 14.67203343     6    113    0    0    0
C -1456.95312426 21.24804464 11.08284718     2    113   117   118   119
H -1458.91710656 20.84750703 11.49390796     6    116    0    0    0
H -1456.80951472 23.21222488 10.30180255     6    116    0    0    0
C -1455.99212461 19.73402902 8.79944959     2    116   120   121   122
H -1456.37362484 20.99862583 7.23745635     6    119    0    0    0
H -1453.91777795 19.86650153 9.08141618     6    119    0    0    0
C -1456.84299414 17.14237941 8.34266713     1    119   123   124   125
H -1455.90988744 16.63218518 6.69235463     6    122    0    0    0
H -1458.82464447 17.10413506 8.27743990     6    122    0    0    0
H -1456.25917301 15.75717447 9.76958198     6    122    0    0    0
H -1465.66009920 16.08349714 51.60445384     6     127    0    0    0
C -1464.04623449 15.17190696 52.45969076     1     126    128    129    130
H -1464.03583887 15.94559771 54.37135099     6     127    0    0    0
H -1464.30822748 13.20136157 52.34731481     6     127    0    0    0
C -1461.84477015 16.02890585 50.85861214     2     127    131    132    133
H -1462.16734178 15.32780744 48.93519831     6     130    0    0    0
H -1461.45848680 18.03986867 50.93518789     6     130    0    0    0
C -1459.57285220 14.38740795 51.56384381     2     130    134   135   136
H -1459.14812059 14.76103671 53.57448773     6     133    0    0    0
H -1459.82635784 12.38073788 51.23614814     6     133    0    0    0
C -1457.07612659 15.15451632 50.16481848     2     133   137   138   139
H -1457.25777428 14.62149107 48.13115889     6    136    0    0    0
H -1456.70916510 17.25525729 50.13328228     6    136    0    0    0
C -1454.77878775 13.64645025 50.98427696     2    136   140   141   142
H -1454.31622062 13.95932025 53.00139877     6    139    0    0    0
H -1454.92569434 11.65597628 50.60995553     6    139    0    0    0
C -1452.61663361 14.92331754 49.69303518     2    139   143   144   145
H -1453.11469748 15.12932536 47.81069557     6    142    0    0    0
H -1452.39344120 16.98871076 50.19340166     6    142    0    0    0
C -1450.22123666 13.37919891 49.95193301     2    142   146   147   148
H -1449.64935299 13.06873065 51.99804702     6    145    0    0    0
H -1450.56090563 11.37465655 49.39148289     6    145    0    0    0
C -1447.91554599 14.38108762 48.40517518     2    145   149   150   151
H -1448.40587784 14.44586518 46.34552696     6    148    0    0    0
H -1447.69217302 16.38154097 49.12534288     6    148    0    0    0
C -1445.50744986 12.76928752 48.88291665     2    148   152   153   154
H -1444.78236220 13.01492543 50.80321330     6    151    0    0    0
H -1445.90566112 10.78025168 48.42263473     6    151    0    0    0
C -1443.45390656 13.40999370 46.94785446     2    151   155   156   157
H -1441.87980697 12.13447871 47.37030917     6    154    0    0    0
H -1444.20118428 12.84203865 45.17279214     6    154    0    0    0
C -1442.48573091 16.20258515 46.88852050     2    154   158   159   160
H -1443.91188173 17.68669400 46.64616441     6    157    0    0    0
H -1441.69598235 16.45796326 48.62497273     6    157    0    0    0
C -1440.60298568 16.62027432 44.75899086     1    157   161   162   163
H -1439.95589260 18.57681152 44.61674910     6    160    0    0    0
H -1441.27501211 16.21994019 42.80746166     6    160    0    0    0
H -1439.06691740 15.40658466 45.00285882     6    160    0    0    0
H -1465.90259652 -0.18200127 36.39058814     6     165    0    0    0
C -1465.98071915 -1.47799990 38.08084437     1     164    166    167    168
H -1467.34023920 -0.75855250 39.53751630     6     165    0    0    0
H -1466.57647230 -3.41695285 37.55638976     6     165    0    0    0
C -1463.46041642 -1.43054304 39.45784290     2     165    169    170    171
H -1462.08412092 -2.66630425 38.47832509     6     168    0    0    0
H -1462.83312870 0.42302887 39.64897943     6     168    0    0    0
C -1463.49404133 -2.91322241 41.99649879     2     168    172   173   174
H -1464.87470883 -2.14831964 43.23893993     6     171    0    0    0
H -1463.94613076 -4.95434303 41.68534320     6     171    0    0    0
C -1460.97731136 -2.72973126 43.51280878     2     171   175   176   177
H -1459.53038837 -2.69012756 42.14504580     6    174    0    0    0
H -1460.89794541 -1.02299252 44.54261279     6    174    0    0    0
C -1460.55565599 -4.85331381 45.53331400     2    174   178   179   180
H -1462.03053275 -4.61630749 46.93633667     6    177    0    0    0
H -1460.95325449 -6.58617105 44.74782927     6    177    0    0    0
C -1457.90896111 -5.01975306 46.66524844     2    177   181   182   183
H -1456.60688255 -5.28538426 45.28255064     6    180    0    0    0
H -1457.53308403 -3.02680393 47.30429208     6    180    0    0    0
C -1457.34542381 -6.93290636 48.75560413     2    180   184   185   186
H -1458.66792751 -6.94393406 50.34098968     6    183    0    0    0
H -1457.61746860 -8.85013049 47.96574720     6    183    0    0    0
C -1454.53112147 -6.54727890 49.39891013     2    183   187   188   189
H -1453.30792592 -6.67771758 47.70995546     6    186    0    0    0
H -1454.31908548 -4.77717228 50.41533702     6    186    0    0    0
C -1453.76418881 -8.64863647 51.24593204     2    186   190   191   192
H -1455.32746236 -8.84698171 52.57513612     6    189    0    0    0
H -1453.84390838 -10.31017061 50.07875179     6    189    0    0    0
C -1451.17527314 -8.13355460 52.38447401     2    189   193   194   195
H -1449.73176104 -8.11717264 50.89048937     6    192    0    0    0
H -1451.10184535 -6.38363762 53.39170711     6    192    0    0    0
C -1450.43874875 -10.11813039 54.25149407     2    192   196   197   198
H -1451.54695125 -9.95905129 56.06756190     6    195    0    0    0
H -1450.62957750 -11.95548264 53.31907458     6    195    0    0    0
C -1447.73026208 -9.94879355 55.17392282     1    195   199   200   201
H -1447.32214794 -11.63739861 56.30268623     6    198    0    0    0
H -1447.37354043 -8.12426636 56.13259206     6    198    0    0    0
H -1446.45816614 -10.04903661 53.50524503     6    198    0    0    0
H -1451.30471452 0.14440919 24.59819633     6     203    0    0    0
C -1452.59687385 -1.00500005 23.54766014     1     202    204    205    206
H -1452.55439754 -2.76326609 24.54834516     6     203    0    0    0
H -1454.37572785 -0.13292256 23.37975542     6     203    0    0    0
C -1451.67264204 -1.17926176 20.92387143     2     203    207    208    209
H -1452.98951397 -2.27562159 19.76265134     6     206    0    0    0
H -1451.79347671 0.69249900 20.09565721     6     206    0    0    0
C -1448.93167399 -2.22013693 20.67179890     2     206    210   211   212
H -1448.52789769 -1.70453328 18.80065328     6     209    0    0    0
H -1447.56022285 -1.25691220 21.93261996     6     209    0    0    0
C -1448.49257049 -5.18928325 20.85520700     2     209   213   214   215
H -1448.33028907 -5.93593160 22.77446033     6    212    0    0    0
H -1450.18506340 -6.23515338 20.14453988     6    212    0    0    0
C -1446.26939418 -6.31429829 19.21594002     2    212   216   217   218
H -1446.82033601 -6.53342094 17.33204480     6    215    0    0    0
H -1444.78348553 -4.91157069 19.12588411     6    215    0    0    0
C -1445.32207364 -8.82420976 20.44963064     2    215   219   220   221
H -1444.98717801 -8.74668412 22.46032680     6    218    0    0    0
H -1446.78272629 -10.39646949 20.49776033     6    218    0    0    0
C -1442.99684740 -9.74006713 18.96572178     2    218   222   223   224
H -1443.35718873 -10.24638777 17.05469096     6    221    0    0    0
H -1441.79987321 -8.07708836 18.63930493     6    221    0    0    0
C -1441.95586283 -12.10063105 20.27634619     2    221   225   226   227
H -1441.93814778 -11.79268473 22.24737438     6    224    0    0    0
H -1443.31279137 -13.77790362 20.38900600     6    224    0    0    0
C -1439.21134962 -12.80814960 19.58528920     2    224   228   229   230
H -1439.17863693 -13.09526951 17.56039067     6    227    0    0    0
H -1437.80828184 -11.35322183 19.92149802     6    227    0    0    0
C -1438.39869514 -15.30544518 21.07281241     2    227   231   232   233
H -1438.83085138 -14.86635618 23.10178477     6    230    0    0    0
H -1439.72887555 -16.84849459 20.60550011     6    230    0    0    0
C -1435.82986057 -16.23032731 20.59060323     2    230   234   235   236
H -1435.86609728 -16.61656555 18.57299147     6    233    0    0    0
H -1434.69255750 -14.63525998 20.81945168     6    233    0    0    0
C -1434.80490947 -18.27903724 22.25003192     1    233   237   238   239
H -1432.92954147 -18.76922953 21.61215480     6    236    0    0    0
H -1435.84362483 -20.07106887 22.21081251     6    236    0    0    0
H -1434.36536889 -17.66733426 24.18082173     6    236    0    0    0
H -1435.71902114 8.59598438 5.85564539     6     241    0    0    0
C -1437.38295586 8.95711027 6.97803148     1     240    242    243    244
H -1438.77705323 7.41537752 6.71805546     6     241    0    0    0
H -1436.97063972 8.90405385 9.03551239     6     241    0    0    0
C -1438.77857558 11.54710231 6.52386575     2     241    245    246    247
H -1439.31749042 11.73208037 4.54121159     6     244    0    0    0
H -1440.63888442 11.43666143 7.31913141     6     244    0    0    0
C -1437.46522406 13.86901007 7.57982468     2     244    248   249   250
H -1438.71988890 15.56672163 7.94246383     6     247    0    0    0
H -1437.08659432 13.59655466 9.64620687     6     247    0    0    0
C -1434.97089284 14.48087653 6.48553246     2     247   251   252   253
H -1433.98729466 15.95280817 7.31118332     6    250    0    0    0
H -1433.94773342 12.77000937 6.46574701     6    250    0    0    0
C -1435.07823173 15.07262952 3.63730545     2    250   254   255   256
H -1435.96722815 13.51431538 2.56015192     6    253    0    0    0
H -1436.41849188 16.64847669 3.29299581     6    253    0    0    0
C -1432.68816776 15.88256245 2.26703402     2    253   257   258   259
H -1433.37182795 16.03199629 0.37264420     6    256    0    0    0
H -1432.16023215 17.69719777 3.04523293     6    256    0    0    0
C -1430.75776059 13.68792344 2.14373860     2    256   260   261   262
H -1429.85802979 13.57654701 4.00075195     6    259    0    0    0
H -1431.54072362 11.90605559 1.62460922     6    259    0    0    0
C -1428.53754174 14.27824822 0.40406648     2    259   263   264   265
H -1429.26645796 14.61817714 -1.51712327     6    262    0    0    0
H -1427.59894043 16.08661183 1.00914358     6    262    0    0    0
C -1426.38351792 12.36027929 0.16039869     2    262   266   267   268
H -1425.34870144 12.23343696 1.87219552     6    265    0    0    0
H -1427.37477305 10.60541031 -0.22648087     6    265    0    0    0
C -1424.48788379 12.82147655 -1.91980938     2    265   269   270   271
H -1425.46604653 12.61544703 -3.73873001     6    268    0    0    0
H -1423.57153485 14.72317624 -1.87296659     6    268    0    0    0
C -1422.59001891 10.57962251 -2.08115484     2    268   272   273   274
H -1421.67173253 10.44438301 -0.22342468     6    271    0    0    0
H -1423.56160790 8.85488903 -2.34171510     6    271    0    0    0
C -1420.69547309 11.06805048 -4.19015637     1    271   275   276   277
H -1421.50385253 10.49414656 -5.93003673     6    274    0    0    0
H -1418.91148908 9.92502784 -3.67723975     6    274    0    0    0
H -1420.16935212 13.03153746 -4.29854081     6    274    0    0    0
H -1456.71750320 -0.50202361 14.82098760     6     279    0    0    0
C -1455.47116751 0.44695528 13.59564495     1     278    280    281    282
H -1456.29782340 0.53416396 11.74358587     6     279    0    0    0
H -1455.09494364 2.33707654 14.17281760     6     279    0    0    0
C -1452.94230756 -1.10523622 13.56985399     2     279    283    284    285
H -1452.12643886 -0.95845909 15.51894478     6     282    0    0    0
H -1453.15209379 -2.99576508 13.03528530     6     282    0    0    0
C -1451.07802161 0.20093715 11.79906729     2     282    286   287   288
H -1451.83781151 0.14291041 9.93532562     6     285    0    0    0
H -1450.97103006 2.11101563 12.35828821     6     285    0    0    0
C -1448.55400442 -1.18212036 11.91553141     2     285   289   290   291
H -1447.77555100 -1.35807352 13.77469710     6    288    0    0    0
H -1448.85578429 -3.06044739 11.49174578     6    288    0    0    0
C -1446.55194566 -0.01994672 10.19476232     2    288   292   293   294
H -1446.91480914 -0.21403652 8.20255173     6    291    0    0    0
H -1446.49157911 2.07212388 10.44651612     6    291    0    0    0
C -1443.97753909 -1.10214177 10.55842763     2    291   295   296   297
H -1443.29356661 -0.53942931 12.43527081     6    294    0    0    0
H -1444.35236303 -3.17258294 10.70473130     6    294    0    0    0
C -1442.02393945 -0.73692784 8.51673296     2    294   298   299   300

   17   -1830.5153182344      3.41E-09 Convergence criterion met
 Total energy in the final basis set = -1828.23613743
 Total job time:  17.06s(wall), 29.68s(cpu)
        *  Thank you very much for using Q-Chem.  Have a nice day.  *

User input: 2 of 2

                  Welcome to Q-Chem
     A Quantum Leap Into The Future Of Chemistry

 Q-Chem 5.4 (devel), Q-Chem, Inc., Pleasanton, CA (2021)

 E. Epifanovsky,  A. T. B. Gilbert,  Xintian Feng,  Joonho Lee,  Yuezhi Mao,
 N. Mardirossian,  P. Pokhilko,  A. White,  M. Wormit,  M. P. Coons,
 A. L. Dempwolff,  Zhengting Gan,  D. Hait,  P. R. Horn,  L. D. Jacobson,
 I. Kaliman,  J. Kussmann,  A. W. Lange,  Ka Un Lao,  D. S. Levine,  Jie Liu,
 S. C. McKenzie,  A. F. Morrison,  K. Nanda,  F. Plasser,  D. R. Rehn,
 M. L. Vidal,  Zhi-Qiang You,  Ying Zhu,  B. Alam,  B. Albrecht,
 A. Aldossary,  E. Alguire,  J. H. Andersen,  D. Barton,  K. Begam,  A. Behn,
 Y. A. Bernard,  E. J. Berquist,  H. Burton,  A. Carreras,  K. Carter-Fenk,
 R. Chakraborty,  A. D. Chien,  K. D. Closser,  V. Cofer-Shabica,
 S. Dasgupta,  Jia Deng,  M. de Wergifosse,  M. Diedenhofen,  Hainam Do,
 S. Ehlert,  Po-Tung Fang,  S. Fatehi,  Qingguo Feng,  T. Friedhoff,
 J. Gayvert,  Qinghui Ge,  G. Gidofalvi,  M. Goldey,  J. Gomes,
 C. Gonzalez-Espinoza,  S. Gulania,  A. Gunina,  M. W. D. Hanson-Heine,
 P. H. P. Harbach,  A. W. Hauser,  M. F. Herbst,  M. Hernandez Vera,
 M. Hodecker,  Z. C. Holden,  S. Houck,  Xunkun Huang,  Kerwin Hui,
 B. C. Huynh,  M. Ivanov,  Hyunjun Ji,  Hanjie Jiang,  B. Kaduk,  S. Kaehler,
 K. Khistyaev,  Jaehoon Kim,  P. Klunzinger,  Z. Koczor-Benda,
 Joong Hoon Koh,  D. Kosenkov,  L. Koulias,  T. Kowalczyk,  C. M. Krauter,
 K. Kue,  A. Kunitsa,  T. Kus,  A. Landau,  K. V. Lawler,  D. Lefrancois,
 S. Lehtola,  Rain Li,  Yi-Pei Li,  Jiashu Liang,  M. Liebenthal,
 Hung-Hsuan Lin,  You-Sheng Lin,  Fenglai Liu,  Kuan-Yu Liu,
 M. Loipersberger,  A. Luenser,  A. Manjanath,  P. Manohar,  E. Mansoor,
 S. F. Manzer,  Shan-Ping Mao,  A. V. Marenich,  T. Markovich,  S. Mason,
 S. A. Maurer,  P. F. McLaughlin,  M. F. S. J. Menger,  J.-M. Mewes,
 S. A. Mewes,  P. Morgante,  J. W. Mullinax,  K. J. Oosterbaan,  G. Paran,
 Alexander C. Paul,  Suranjan K. Paul,  F. Pavosevic,  Zheng Pei,  S. Prager,
 E. I. Proynov,  E. Ramos,  B. Rana,  A. E. Rask,  A. Rettig,  R. M. Richard,
 F. Rob,  E. Rossomme,  T. Scheele,  M. Scheurer,  M. Schneider,
 N. Sergueev,  S. M. Sharada,  W. Skomorowski,  D. W. Small,  C. J. Stein,
 Yu-Chuan Su,  E. J. Sundstrom,  Zhen Tao,  J. Thirman,  T. Tsuchimochi,
 N. M. Tubman,  S. P. Veccham,  O. Vydrov,  J. Wenzel,  J. Witte,  A. Yamada,
 Kun Yao,  S. Yeganeh,  S. R. Yost,  A. Zech,  Igor Ying Zhang,  Xing Zhang,
 Yu Zhang,  D. Zuev,  A. Aspuru-Guzik,  A. T. Bell,  N. A. Besley,
 K. B. Bravaya,  B. R. Brooks,  D. Casanova,  Jeng-Da Chai,  S. Coriani,
 C. J. Cramer,  A. E. DePrince, III,  R. A. DiStasio Jr.,  A. Dreuw,
 B. D. Dunietz,  T. R. Furlani,  W. A. Goddard III,  S. Grimme,
 S. Hammes-Schiffer,  T. Head-Gordon,  W. J. Hehre,  Chao-Ping Hsu,
 T.-C. Jagau,  Yousung Jung,  A. Klamt,  Jing Kong,  D. S. Lambrecht,
 WanZhen Liang,  N. J. Mayhall,  C. W. McCurdy,  J. B. Neaton,
 C. Ochsenfeld,  J. A. Parkhill,  R. Peverati,  V. A. Rassolov,  Yihan Shao,
 L. V. Slipchenko,  T. Stauch,  R. P. Steele,  J. E. Subotnik,
 A. J. W. Thom,  A. Tkatchenko,  D. G. Truhlar,  T. Van Voorhis,
 T. A. Wesolowski,  K. B. Whaley,  H. L. Woodcock III,  P. M. Zimmerman,
 S. Faraji,  P. M. W. Gill,  M. Head-Gordon,  J. M. Herbert,  A. I. Krylov

 Additional authors for Version 5.4.1:
 S. Kotaru,  Shaozhi Li,  Xiangyuan Li,  F. Matz,  A. Molle,  Haisheng Ren,
 Yingli Su,  Hung-Yi Tsai,  C. Utku,  Fang Wang

 Contributors to earlier versions of Q-Chem not listed above:
 R. D. Adamson,  B. Austin,  R. Baer,  J. Baker,  G. J. O. Beran,
 K. Brandhorst,  S. T. Brown,  E. F. C. Byrd,  A. K. Chakraborty,
 G. K. L. Chan,  Chun-Min Chang,  Yunqing Chen,  C.-L. Cheng,
 Siu Hung Chien,  D. M. Chipman,  D. L. Crittenden,  H. Dachsel,
 R. J. Doerksen,  A. D. Dutoi,  R. G. Edgar,  J. Fosso-Tande,
 L. Fusti-Molnar,  D. Ghosh,  A. Ghysels,  A. Golubeva-Zadorozhnaya,
 J. Gonthier,  M. S. Gordon,  S. R. Gwaltney,  G. Hawkins,  J. E. Herr,
 A. Heyden,  S. Hirata,  E. G. Hohenstein,  G. Kedziora,  F. J. Keil,
 C. Kelley,  Jihan Kim,  R. A. King,  R. Z. Khaliullin,  P. P. Korambath,
 W. Kurlancheek,  A. Laurent,  A. M. Lee,  M. S. Lee,  S. V. Levchenko,
 Ching Yeh Lin,  D. Liotard,  E. Livshits,  R. C. Lochan,  I. Lotan,
 L. A. Martinez-Martinez,  P. E. Maslen,  N. Nair,  D. P. O'Neill,
 D. Neuhauser,  E. Neuscamman,  C. M. Oana,  R. Olivares-Amaya,  R. Olson,
 T. M. Perrine,  B. Peters,  P. A. Pieniazek,  A. Prociuk,  Y. M. Rhee,
 J. Ritchie,  M. A. Rohrdanz,  E. Rosta,  N. J. Russ,  H. F. Schaefer III,
 M. W. Schmidt,  N. E. Schultz,  S. Sharma,  N. Shenvi,  C. D. Sherrill,
 A. C. Simmonett,  A. Sodt,  T. Stein,  D. Stuck,  K. S. Thanthiriwatte,
 V. Vanovschi,  L. Vogt,  Tao Wang,  A. Warshel,  M. A. Watson,
 C. F. Williams,  Q. Wu,  X. Xu,  Jun Yang,  W. Zhang,  Yan Zhao

 Please cite Q-Chem as follows:
 Y. Shao et al., Mol. Phys. 113, 184-215 (2015)
 DOI: 10.1080/00268976.2014.952696

 Q-Chem 5.4.1 for Intel X86 EM64T Linux

 Parts of Q-Chem use Armadillo 9.900.5 (Nocturnal Misbehaviour).
 http://arma.sourceforge.net/

 Q-Chem begins on Wed Jun  1 23:30:40 2022

 Host: p09r14n13.grace.hpc.yale.internal
0

     Scratch files written to /home/tl686/scratch60/qchem_dev/scratch/qchem244397//
 Processing $rem in /home/tl686/qchem_dev/qchem/config/preferences:
 Processing $rem in /home/tl686/.qchemrc:
Applying user defined connections for MM calculations
The previous job contains 0 fragments, simply inherited here

 Checking the input file for inconsistencies... 	...done.

--------------------------------------------------------------
User input:
--------------------------------------------------------------

$molecule
READ
$end

$qm_atoms
1:11
$end

$force_field_params
NumAtomTypes 3
AtomType -1   0.0238     3.11   0.2868
AtomType -2   0.07124    3.30   0.6597
AtomType -3  -0.0760     3.09   0.1434
$end

$rem
     JOBTYPE  freq
     METHOD   bp86
     BASIS    def2-msvp
     MAX_SCF_CYCLES   800
     INPUT_BOHR TRUE
     SYM_IGNORE TRUE
     SCF_GUESS     read
     user_connect            true
     qm_mm_interface         ONIOM
     force_field             oplsaa
$end

--------------------------------------------------------------

    2   -1830.5153182340      8.04E-09 Convergence criterion met
 Total energy in the final basis set = -1828.23613743

                    Orbital Energies (a.u.)
 --------------------------------------------------------------

 Alpha MOs
 -- Occupied --
******** -29.6376 -25.5944 -25.5909 -25.5779 -18.9005 -18.8854 -18.8850
-18.8685 -18.8662 -10.0637 -10.0550 -10.0488 -10.0454 -10.0332  -3.3215
 -2.1495  -2.1457  -2.1189  -1.0819  -1.0644  -1.0577  -1.0297  -1.0208
 -0.5734  -0.5315  -0.5227  -0.5155  -0.5105  -0.4563  -0.4522  -0.4440
 -0.4402  -0.4355  -0.4294  -0.4254  -0.4201  -0.4103  -0.4052  -0.4041
 -0.3999  -0.3936  -0.3888  -0.3796  -0.2815  -0.2564  -0.2490  -0.2161

          Ground-State Mulliken Net Atomic Charges

     Atom                 Charge (a.u.)
  ----------------------------------------
      1 Fe                   -0.503544
      2 C                     0.207201
      3 C                     0.221398
      4 C                     0.196718
      5 C                     0.254788
      6 C                     0.202377
      7 O                    -0.110269
      8 O                    -0.075958
      9 O                    -0.159117
     10 O                    -0.136713
     11 O                    -0.096882
  ----------------------------------------
  Sum of atomic charges =     0.000000

                    Cartesian Multipole Moments
 -----------------------------------------------------------------
    Charge (ESU x 10^10)
                -0.0000
    Dipole Moment (Debye)
         X       0.5373830092      Y      -0.1878300946      Z       0.6835101347
       Tot       0.8895205153
    Quadrupole Moments (Debye-Ang)
        XX    -882.7442     XY     146.5371     YY     -74.0963
        XZ    -506.3771     YZ       0.8983     ZZ     -39.7090

 Frequency:       -53.99                 -45.01                  14.78
 Force Cnst:      0.0259                 0.0193                 0.0022
 Red. Mass:      15.0832                16.1873                17.1310
 IR Intens:        0.000                  0.000                  0.000
 Frequency:        61.65                 100.61                 123.25
 Force Cnst:      0.0357                 0.0977                 0.1436
 Red. Mass:      15.9236                16.3909                16.0481
 IR Intens:        0.000                  0.000                  0.000
 Frequency:       141.18                 292.89                 345.04
 Force Cnst:      0.1931                 0.6523                 0.9304
 Red. Mass:      16.4426                12.9050                13.2636
 IR Intens:        0.000                  0.000                  0.000
 Frequency:       360.75                 376.27                 419.70
 Force Cnst:      1.0760                 1.0907                 1.4985
 Red. Mass:      14.0326                13.0760                14.4394
 IR Intens:        0.000                  0.000                  0.000
 Frequency:       425.51                 446.31                 482.76
 Force Cnst:      1.3722                 1.8033                 1.8309
 Red. Mass:      12.8631                15.3648                13.3332
 IR Intens:        0.000                  0.000                  0.000
 Frequency:       512.23                 516.75                 547.47
 Force Cnst:      2.0601                 2.1592                 2.3533
 Red. Mass:      13.3262                13.7242                13.3261
 IR Intens:        0.000                  0.000                  0.000
 Frequency:       568.50                 635.89                 653.67
 Force Cnst:      2.7214                 4.0695                 3.8855
 Red. Mass:      14.2917                17.0812                15.4342
 IR Intens:        0.000                  0.000                  0.000
 Frequency:       679.14                1779.86                1929.18
 Force Cnst:      4.5978                24.6976                29.1255
 Red. Mass:      16.9193                13.2321                13.2824
 IR Intens:        0.000                  0.000                  0.000
 Frequency:      2027.42                2114.12                2167.19
 Force Cnst:     32.3354                35.1924                37.0046
 Red. Mass:      13.3518                13.3641                13.3725
 IR Intens:        0.000                  0.000                  0.000

 STANDARD THERMODYNAMIC QUANTITIES AT   298.15 K  AND     1.00 ATM

   This Molecule has  2 Imaginary Frequencies
   Zero point vibrational energy:       25.335 kcal/mol

   Atom    1 Element Fe Has Mass   55.93490
   Atom    2 Element C  Has Mass   12.00000
   Atom    3 Element C  Has Mass   12.00000
   Atom    4 Element C  Has Mass   12.00000
   Atom    5 Element C  Has Mass   12.00000
   Atom    6 Element C  Has Mass   12.00000
   Atom    7 Element O  Has Mass   15.99491
   Atom    8 Element O  Has Mass   15.99491
   Atom    9 Element O  Has Mass   15.99491
   Atom   10 Element O  Has Mass   15.99491
   Atom   11 Element O  Has Mass   15.99491
   Molecular Mass:   195.909450 amu
   Principal axes and moments of inertia in amu*Bohr^2:
                             1           2           3
    Eigenvalues --     2011.71187  2056.55652  2432.50293
          X              -0.33568     0.77160     0.54033
          Y              -0.01271    -0.57727     0.81645
          Z               0.94189     0.26720     0.20358
   Rotational Symmetry Number is   1
   The Molecule is an Asymmetric Top
   Translational Enthalpy:        0.889 kcal/mol
   Rotational Enthalpy:           0.889 kcal/mol
   Vibrational Enthalpy:         30.078 kcal/mol
   gas constant (RT):             0.592 kcal/mol
   Translational Entropy:        41.722  cal/mol.K
   Rotational Entropy:           30.687  cal/mol.K
   Vibrational Entropy:          32.413  cal/mol.K

   Total Enthalpy:               32.448 kcal/mol
   Total Entropy:               104.823  cal/mol.K

 Total job time:  126.43s(wall), 249.08s(cpu)
        *  Thank you very much for using Q-Chem.  Have a nice day.  *
