 Q-Chem 5.4 (devel), Q-Chem, Inc., Pleasanton, CA (2021)
 Q-Chem 5.4.1 for Intel X86 EM64T Linux

User input:
--------------------------------------------------------------
$molecule
0   1
Fe 33.63700006 -1.50073579 1.35488578
C 30.78967570 -0.42456647 -0.09223487
C 36.43604585 -2.21560689 3.04118183
C 31.95208244 -2.40492451 4.08731210
C 34.26808884 -3.75305810 -1.13235823
C 34.74468569 1.71596635 1.21694320
O 28.79205505 0.22276877 -0.79623275
O 38.01422896 -2.94950581 4.31846169
O 31.05296908 -3.32921329 5.83353627
O 34.84012055 -4.76397531 -2.95861522
O 35.47664291 3.73863473 0.90514033

$end

$rem
     JOBTYPE  force
     METHOD   bp86
     BASIS    def2-msvp
     MAX_SCF_CYCLES   800
     INPUT_BOHR TRUE
     SYM_IGNORE TRUE
$end
--------------------------------------------------------------

   17   -1830.5164973866      7.66e-09  Convergence criterion met
 Total energy in the final basis set =    -1830.5164973866

                    Orbital Energies (a.u.)
 --------------------------------------------------------------

 Alpha MOs
 -- Occupied --
******** -29.6316 -25.5910 -25.5786 -25.5748 -18.8848 -18.8811 -18.8795
-18.8729 -18.8721 -10.0519 -10.0504 -10.0456 -10.0367 -10.0341  -3.3187
 -2.1549  -2.1293  -2.1231  -1.0709  -1.0602  -1.0553  -1.0550  -1.0501
 -0.5754  -0.5249  -0.5202  -0.5139  -0.5113  -0.4585  -0.4487  -0.4465
 -0.4374  -0.4328  -0.4315  -0.4257  -0.4235  -0.4209  -0.4134  -0.4108
 -0.4090  -0.3983  -0.3945  -0.3809  -0.2762  -0.2750  -0.2361  -0.2167

          Ground-State Mulliken Net Atomic Charges

     Atom                 Charge (a.u.)
  ----------------------------------------
      1 Fe                   -0.494400
      2 C                     0.195840
      3 C                     0.178182
      4 C                     0.213700
      5 C                     0.213899
      6 C                     0.214282
      7 O                    -0.121509
      8 O                    -0.093512
      9 O                    -0.104354
     10 O                    -0.102008
     11 O                    -0.100120
  ----------------------------------------
  Sum of atomic charges =     0.000000

                    Cartesian Multipole Moments
 -----------------------------------------------------------------
    Charge (ESU x 10^10)
                -0.0000
    Dipole Moment (Debye)
         X   0.2081280432      Y   0.2368529461      Z   0.2125823278
       Tot   0.3802733840
    Quadrupole Moments (Debye-Ang)
        XX     -61.4744     XY       4.1201     YY     -69.3162
        XZ       4.3975     YZ       0.7859     ZZ     -69.6002

 Total job time:  3.43s(wall), 35.92s(cpu)
        *  Thank you very much for using Q-Chem.  Have a nice day.  *
