 Q-Chem 5.4 (devel), Q-Chem, Inc., Pleasanton, CA (2021)
 Q-Chem 5.4.1 for Intel X86 EM64T Linux

User input:
--------------------------------------------------------------
$molecule
0   1
 Fe 361.55062733 12.60530424 -40.20413287    -1  0   0   0   0
C 358.88903036 13.25507547 -42.13623329    -2  0   0   0   0
C 364.94524129 12.33887692 -41.03802341    -2  0   0   0   0
C 361.90429068 16.12589092 -39.40729889    -2  0   0   0   0
C 361.20843609 11.92938105 -36.79420788    -2  0   0   0   0
C 360.68303517 9.53200044 -40.95468921    -2  0   0   0   0
O 357.09089448 13.65420900 -43.30611566    -3  0   0   0   0
O 366.90315230 12.02271375 -41.48598364    -3  0   0   0   0
O 362.08078862 18.15092044 -38.94994377    -3  0   0   0   0
O 361.07048791 11.34728966 -34.78046385    -3  0   0   0   0
O 359.50119537 7.57701741 -41.41916917    -3  0   0   0   0
H 349.46851415 34.59948271 -45.27980428      6     13    0    0    0
C 347.59392821 35.37229710 -44.88887850     1     12    14    15    16
H 347.69655796 37.47798705 -44.87040855     6     13    0    0    0
H 346.21054963 34.80310353 -46.35316989     6     13    0    0    0
C 346.54424723 34.37754173 -42.35024358     2     13    17    18    19
H 347.50469402 35.48768032 -40.94942279     6     16    0    0    0
H 344.58515659 34.82698161 -41.95341028     6     16    0    0    0
C 347.12186802 31.55973267 -42.00620589     2     16    20   21   22
H 346.20414012 30.66585813 -43.46378206     6     19    0    0    0
H 349.10220216 31.31679272 -42.17012533     6     19    0    0    0
C 346.36226496 30.43264899 -39.42466058     2     19   23   24   25
H 347.16291172 31.70483335 -37.93228981     6    22    0    0    0
H 344.39177758 30.91221044 -39.07943891     6    22    0    0    0
C 347.11425163 27.73129501 -38.89452141     2    22   26   27   28
H 346.34405740 26.35236777 -40.21104515     6    25    0    0    0
H 349.13470859 27.38103760 -39.12565944     6    25    0    0    0
C 346.08923156 26.92202119 -36.39418640     2    25   29   30   31
H 346.94335342 28.18435975 -35.16803742     6    28    0    0    0
H 344.14947487 27.16016770 -36.69688929     6    28    0    0    0
C 346.70181103 24.17934084 -35.75366092     2    28   32   33   34
H 346.59472806 23.04255094 -37.35297801     6    31    0    0    0
H 348.64047697 24.12226379 -35.22096412     6    31    0    0    0
C 345.09640223 23.02500015 -33.59935406     2    31   35   36   37
H 345.41084103 24.43238693 -32.10881447     6    34    0    0    0
H 343.09991692 23.30962824 -33.98766023     6    34    0    0    0
C 345.58172234 20.31981516 -32.71598803     2    34   38   39   40
H 344.88028324 19.05530248 -34.27759258     6    37    0    0    0
H 347.60431490 19.93398483 -32.43184630     6    37    0    0    0
C 344.27997315 19.33809719 -30.38282329     2    37   41   42   43
H 344.74880907 20.38937354 -28.72424999     6    40    0    0    0
H 342.16606667 19.64880067 -30.55636703     6    40    0    0    0
C 344.81904577 16.49782956 -29.92112773     2    40   44   45   46
H 343.71353230 15.30568702 -31.18400880     6    43    0    0    0
H 346.79658125 16.21330024 -30.20181616     6    43    0    0    0
C 344.48488231 15.86788666 -27.03068008     1    43   47   48   49
H 345.28643624 17.27026573 -25.85927682     6    46    0    0    0
H 345.29692364 14.12781574 -26.40260213     6    46    0    0    0
H 342.38400328 15.81683740 -26.68259543     6    46    0    0    0
H 349.33073135 8.80716820 -39.77041418     6     51    0    0    0
C 351.25602807 8.74266730 -40.37201301     1     50    52    53    54
H 352.04017105 6.88463733 -40.26116085     6     51    0    0    0
H 351.30147044 9.18673140 -42.40245531     6     51    0    0    0
C 352.89431911 10.86623102 -39.02069959     2     51    55    56    57
H 354.88615079 10.54399994 -39.44276875     6     54    0    0    0
H 352.59570099 12.72254452 -39.58605879     6     54    0    0    0
C 352.61387398 10.35432028 -36.15773509     2     54    58   59   60
H 353.34930009 8.56419792 -35.52862418     6     57    0    0    0
H 353.65258296 11.83366844 -35.18883284     6     57    0    0    0
C 349.98420137 10.79188053 -34.92260261     2     57   61   62   63
H 349.18375904 12.55175006 -35.67485378     6    60    0    0    0
H 348.55769674 9.41739615 -35.36554247     6    60    0    0    0
C 350.16087062 11.13493688 -32.02269325     2    60   64   65   66
H 351.82290416 10.21176443 -31.21881880     6    63    0    0    0
H 350.68963430 12.92537787 -31.53978759     6    63    0    0    0
C 347.67362149 10.18969330 -30.76038352     2    63   67   68   69
H 347.66197592 10.54533503 -28.73383656     6    66    0    0    0
H 346.01411121 11.10916759 -31.51823661     6    66    0    0    0
C 347.54501282 7.33573578 -30.76406897     2    66   70   71   72
H 348.27452174 6.64231708 -32.49899010     6    69    0    0    0
H 348.75139204 6.66125973 -29.22785400     6    69    0    0    0
C 344.91743246 6.36286857 -30.48248277     2    69   73   74   75
H 344.38778985 6.39122780 -28.55198069     6    72    0    0    0
H 343.56429942 7.23487411 -31.68942964     6    72    0    0    0
C 344.90294721 3.59078596 -31.28936603     2    72   76   77   78
H 345.21646660 3.64762983 -33.37726018     6    75    0    0    0
H 346.42312070 2.47525337 -30.53055687     6    75    0    0    0
C 342.33905709 2.27419722 -30.70787325     2    75   79   80   81
H 341.65218861 2.67389227 -28.68831729     6    78    0    0    0
H 340.87127193 3.04426602 -31.91350539     6    78    0    0    0
C 342.42314674 -0.55541113 -31.14434173     2    78   82   83   84
H 343.43349382 -1.04143499 -32.84579309     6    81    0    0    0
H 343.60873709 -1.61179117 -29.94726862     6    81    0    0    0
C 339.81499648 -1.87844851 -31.45235412     1    81   85   86   87
H 340.09164860 -3.80192570 -31.10688547     6    84    0    0    0
H 339.14079689 -1.69853645 -33.44028875     6    84    0    0    0
H 338.38743912 -1.13433681 -30.29214626     6    84    0    0    0
H 345.99817882 39.62120763 -21.18194216     6     89    0    0    0
C 344.56590342 38.27515280 -20.48990656     1     88    90    91    92
H 345.69797087 36.56597669 -20.38510152     6     89    0    0    0
H 343.75038383 38.90068434 -18.68774766     6     89    0    0    0
C 342.41565726 37.92417384 -22.43112824     2     89    93    94    95
H 341.57923150 39.75248294 -22.97687161     6     92    0    0    0
H 343.32039137 37.08741194 -24.06987652     6     92    0    0    0
C 340.23735937 36.22242866 -21.66956860     2     92    96   97   98
H 340.74077135 34.47423385 -20.76319049     6     95    0    0    0
H 339.07093249 37.31332152 -20.39744472     6     95    0    0    0
C 338.71505747 35.39857136 -23.90086494     2     95   99   100   101
H 338.06698357 37.08787971 -24.79939026     6    98    0    0    0
H 340.07674198 34.71847822 -25.18143253     6    98    0    0    0
C 336.51858774 33.56193369 -23.14862100     2    98   102   103   104
H 337.53677624 31.86948177 -22.56203864     6    101    0    0    0
H 335.59816803 34.25887586 -21.45919676     6    101    0    0    0
C 334.55836555 33.01418046 -25.24206563     2    101   105   106   107
H 333.26539231 34.46592759 -24.99634585     6    104    0    0    0
H 335.33046556 33.34201828 -27.09418776     6    104    0    0    0
C 333.53118056 30.35809326 -25.22052290     2    104   108   109   110
H 335.10485150 29.10727832 -25.75750573     6    107    0    0    0
H 332.73576319 29.99285399 -23.31809022     6    107    0    0    0
C 331.30049235 30.19360076 -27.15591009     2    107   111   112   113
H 330.08655704 31.87391453 -27.10171920     6    110    0    0    0
H 331.88028492 30.44325764 -29.15942610     6    110    0    0    0
C 330.04407904 27.66930452 -26.83635083     2    110   114   115   116
H 331.34678111 26.26555258 -26.75165123     6    113    0    0    0
H 329.06598245 27.66332564 -25.09031642     6    113    0    0    0
C 328.14224229 27.13679962 -28.97177789     2    113   117   118   119
H 327.08199562 28.84512895 -29.48733044     6    116    0    0    0
H 329.07562916 26.69832545 -30.75093977     6    116    0    0    0
C 326.21255526 25.00471758 -28.49563133     2    116   120   121   122
H 324.48737230 25.45917804 -29.55064200     6    119    0    0    0
H 326.84234071 23.24280940 -29.33440118     6    119    0    0    0
C 325.14412401 24.76367627 -25.76856775     1    119   123   124   125
H 323.75938042 23.23594908 -25.59153800     6    122    0    0    0
H 324.27845109 26.47419483 -25.10060237     6    122    0    0    0
H 326.53386299 24.36424371 -24.43716959     6    122    0    0    0
H 360.24170769 30.04437997 -15.84514128     6     127    0    0    0
C 360.53882460 28.96293548 -17.53753357     1     126    128    129    130
H 360.45434001 27.00810708 -16.95781307     6     127    0    0    0
H 358.91665988 29.43091705 -18.70311353     6     127    0    0    0
C 363.11854546 29.97685133 -18.50098499     2     127    131    132    133
H 363.03598189 32.07160519 -18.97676191     6     130    0    0    0
H 364.65406495 29.72950810 -17.15780610     6     130    0    0    0
C 363.57772276 28.78826657 -21.09955456     2     130    134   135   136
H 363.93924467 26.72302961 -20.97813149     6     133    0    0    0
H 362.10653600 29.22100862 -22.31789616     6     133    0    0    0
C 366.05161885 30.03066331 -22.07192455     2     133   137   138   139
H 365.73004237 31.95537540 -22.35404617     6    136    0    0    0
H 367.67777986 29.73408813 -20.65218379     6    136    0    0    0
C 366.97379700 28.83878116 -24.48603200     2    136   140   141   142
H 366.86229486 26.83376766 -24.13172589     6    139    0    0    0
H 365.78328816 29.13016513 -26.14792375     6    139    0    0    0
C 369.78567369 29.54811243 -25.04986208     2    139   143   144   145
H 369.73477113 31.45310249 -25.92399713     6    142    0    0    0
H 370.70820606 29.53063403 -23.21041051     6    142    0    0    0
C 370.93931880 27.69443668 -26.87301847     2    142   146   147   148
H 371.25292315 25.94512717 -25.93677248     6    145    0    0    0
H 369.82926333 27.21280132 -28.55850700     6    145    0    0    0
C 373.65512646 28.44878879 -27.80988278     2    145   149   150   151
H 373.70013641 30.41473981 -28.13150278     6    148    0    0    0
H 374.95447102 28.32702544 -26.15879450     6    148    0    0    0
C 374.63654752 27.02867721 -30.08132617     2    148   152   153   154
H 374.69689285 24.97353776 -29.65453735     6    151    0    0    0
H 373.60349899 27.38280947 -31.81651729     6    151    0    0    0
C 377.37316530 27.73720216 -30.74032969     2    151   155   156   157
H 377.36468290 29.70000671 -31.30071991     6    154    0    0    0
H 378.62221261 27.42273264 -29.09623917     6    154    0    0    0
C 378.18301511 26.04504002 -32.92999341     2    154   158   159   160
H 377.50581116 24.15926189 -32.69742991     6    157    0    0    0
H 377.13474881 26.65270962 -34.56339180     6    157    0    0    0
C 381.02865120 25.77818761 -33.26916509     1    157   161   162   163
H 381.29178002 24.26106094 -34.69756150     6    160    0    0    0
H 381.76954213 24.86477740 -31.63189674     6    160    0    0    0
H 382.11936611 27.52739635 -33.77982009     6    160    0    0    0
H 350.36496790 17.89439967 -5.67633505     6     165    0    0    0
C 351.01591006 19.15115047 -7.22844403     1     164    166    167    168
H 351.35532622 18.02786644 -8.84419137     6     165    0    0    0
H 349.62514867 20.65920023 -7.54728634     6     165    0    0    0
C 353.55209991 20.09533050 -6.37002587     2     165    169    170    171
H 353.23788662 20.94472655 -4.61129922     6     168    0    0    0
H 354.71680631 18.32845074 -6.15514830     6     168    0    0    0
C 354.71169132 22.13852239 -8.10492880     2     168    172   173   174
H 354.42467565 21.51967218 -10.05822146     6     171    0    0    0
H 353.63925711 23.88394129 -7.78801515     6     171    0    0    0
C 357.61346975 22.98932751 -7.56305807     2     171   175   176   177
H 357.49196521 24.02981301 -5.71734177     6    174    0    0    0
H 358.84890917 21.44134263 -6.96132070     6    174    0    0    0
C 358.92527275 24.75828963 -9.56621225     2    174   178   179   180
H 358.17681290 24.13692525 -11.42594399     6    177    0    0    0
H 358.50865003 26.81237908 -9.26259716     6    177    0    0    0
C 361.84228289 24.41790475 -9.34133946     2    177   181   182   183
H 362.56304492 24.38251067 -7.37228780     6    180    0    0    0
H 362.07052401 22.52759965 -10.09381468     6    180    0    0    0
C 363.30363552 26.54173610 -10.78672900     2    180   184   185   186
H 362.97685764 26.50919459 -12.77173530     6    183    0    0    0
H 362.57423393 28.41060103 -10.25271595     6    183    0    0    0
C 366.12709678 26.64372342 -10.04362899     2    183   187   188   189
H 365.85913012 27.07772934 -8.07789428     6    186    0    0    0
H 366.68812311 24.60014776 -9.94355487     6    186    0    0    0
C 367.65630391 28.62346103 -11.41735681     2    186   190   191   192
H 367.42688485 28.19821956 -13.43381707     6    189    0    0    0
H 366.42321025 30.36793660 -11.16153978     6    189    0    0    0
C 370.46810912 28.99455590 -10.79398713     2    189   193   194   195
H 370.88051636 30.15110306 -9.15351615     6    192    0    0    0
H 371.09978442 27.19635969 -10.02625470     6    192    0    0    0
C 371.90752935 29.92267840 -13.13194937     2    192   196   197   198
H 371.44457266 28.54609371 -14.61865910     6    195    0    0    0
H 371.06135966 31.74315691 -13.91092646     6    195    0    0    0
C 374.82989360 30.07770411 -12.81631932     1    195   199   200   201
H 375.54904194 30.73853691 -14.59827271     6    198    0    0    0
H 375.72892302 28.24136213 -12.29167677     6    198    0    0    0
H 375.49635345 31.44542883 -11.51319592     6    198    0    0    0
H 355.31667590 10.64373396 -1.81365374     6     203    0    0    0
C 353.88448111 11.61338603 -3.03878223     1     202    204    205    206
H 352.10428105 10.73478398 -2.41623193     6     203    0    0    0
H 353.53553618 13.55021660 -2.49266926     6     203    0    0    0
C 354.09035250 11.36123094 -5.84542007     2     203    207    208    209
H 352.46964802 11.34225348 -6.90693981     6     206    0    0    0
H 355.17309588 13.04036424 -6.43128513     6     206    0    0    0
C 355.80328443 9.02984069 -6.53048724     2     206    210   211   212
H 356.29771741 9.21773520 -8.46404497     6     209    0    0    0
H 357.55467210 8.95636542 -5.36655853     6     209    0    0    0
C 354.27276979 6.45985119 -6.08664401     2     209   213   214   215
H 353.78498307 6.41103240 -4.08041026     6    212    0    0    0
H 352.60348096 6.65052569 -7.14830528     6    212    0    0    0
C 355.28175699 3.97911059 -7.01979197     2    212   216   217   218
H 355.08049707 3.84338911 -9.15698935     6    215    0    0    0
H 357.32791258 3.77927935 -7.02252371     6    215    0    0    0
C 353.88554619 1.76405248 -5.89772910     2    215   219   220   221
H 354.24474640 1.83711479 -3.82818614     6    218    0    0    0
H 351.95942932 2.23029418 -5.92436623     6    218    0    0    0
C 354.38205279 -0.86826278 -7.15271168     2    218   222   223   224
H 354.70574507 -0.61538448 -9.27061731     6    221    0    0    0
H 356.14276348 -1.44337596 -6.31326231     6    221    0    0    0
C 352.11714355 -2.62732647 -6.71649412     2    221   225   226   227
H 351.62961329 -2.30550298 -4.85055923     6    224    0    0    0
H 350.65819652 -1.95861104 -7.91568303     6    224    0    0    0
C 352.89560683 -5.42108371 -6.98779283     2    224   228   229   230
H 353.19823981 -5.80681690 -9.04974695     6    227    0    0    0
H 354.77122926 -5.63516334 -6.13935868     6    227    0    0    0
C 351.27073287 -7.42846918 -5.86833227     2    227   231   232   233
H 350.88514902 -7.18420847 -3.68364165     6    230    0    0    0
H 349.48316655 -7.33057095 -6.96112058     6    230    0    0    0
C 352.24384335 -10.10479144 -6.04651210     2    230   234   235   236
H 352.67230179 -10.56427987 -8.06436618     6    233    0    0    0
H 354.12015550 -10.20734545 -5.28053977     6    233    0    0    0
C 350.30823973 -12.02061724 -5.12737397     1    233   237   238   239
H 350.77085334 -14.01506736 -5.48155499     6    236    0    0    0
H 348.48037875 -11.91954935 -5.98765487     6    236    0    0    0
H 349.99357598 -11.56311810 -3.16879448     6    236    0    0    0
H 340.20325030 9.50615883 -33.86224164     6     241    0    0    0
C 338.27421070 10.08364835 -33.28514315     1     240    242    243    244
H 337.50657142 11.28720004 -34.79892361     6     241    0    0    0
H 337.27576534 8.26405862 -33.08506378     6     241    0    0    0
C 338.59434373 11.62015784 -30.79745979     2     241    245    246    247
H 339.91727862 10.67274925 -29.54876919     6     244    0    0    0
H 339.47130438 13.40197904 -31.45018004     6     244    0    0    0
C 335.89608297 12.15091703 -29.56607494     2     244    248   249   250
H 336.19615467 13.26965750 -27.88619805     6     247    0    0    0
H 334.68856392 13.13321809 -30.98859917     6     247    0    0    0
C 334.83532310 9.56488318 -28.62204047     2     247   251   252   253
H 333.04426600 10.15971983 -27.60601778     6    250    0    0    0
H 334.39728672 8.37562817 -30.19358623     6    250    0    0    0
C 336.46374134 7.90961460 -26.77114223     2    250   254   255   256
H 338.29170721 7.24794016 -27.52351938     6    253    0    0    0
H 337.07555419 9.05317773 -25.34294002     6    253    0    0    0
C 334.98001883 5.61194849 -25.48947955     2    253   257   258   259
H 336.02409494 4.75738087 -23.91646260     6    256    0    0    0
H 333.14953141 6.23827727 -24.75337442     6    256    0    0    0
C 334.40334084 3.56531880 -27.48964269     2    256   260   261   262
H 333.52144859 4.60677510 -28.98157647     6    259    0    0    0
H 336.20039712 3.05147685 -28.17804432     6    259    0    0    0
C 332.96922980 1.43523334 -26.46228743     2    259   263   264   265
H 334.24382885 0.00104706 -25.53483301     6    262    0    0    0
H 331.78904720 2.32709479 -25.11507312     6    262    0    0    0
C 331.33004648 0.09296353 -28.38037145     2    262   266   267   268
H 330.44323906 -1.44465609 -27.40263477     6    265    0    0    0
H 329.79860026 1.25919452 -29.06872150     6    265    0    0    0
C 332.78968434 -0.89012328 -30.70772759     2    265   269   270   271
H 333.44301005 0.59818743 -32.01773688     6    268    0    0    0
H 334.42559937 -2.05378454 -30.11311286     6    268    0    0    0
C 331.08347551 -2.40341512 -32.56959108     2    268   272   273   274
H 330.29204028 -4.17217868 -31.94398048     6    271    0    0    0
H 329.65807591 -1.04664067 -33.07516369     6    271    0    0    0
C 332.54729522 -3.16181101 -35.03648912     1    271   275   276   277
H 333.03351474 -1.51143338 -36.17035037     6    274    0    0    0
H 331.40052681 -4.32530032 -36.05546841     6    274    0    0    0
H 334.28076992 -4.18328686 -34.82024459     6    274    0    0    0
H 345.56881707 26.93867326 -11.65542594     6     279    0    0    0
C 344.68077831 25.16696800 -11.30054683     1     278    280    281    282
H 344.27023323 25.01465519 -9.18261007     6     279    0    0    0
H 342.94957770 24.99835376 -12.39612128     6     279    0    0    0
C 346.41566484 23.21203705 -12.27630737     2     279    283    284    285
H 346.17123901 23.15292404 -14.31642921     6     282    0    0    0
H 348.34773201 23.79570989 -12.08111928     6     282    0    0    0
C 345.80335493 20.49490102 -11.39340407     2     282    286   287   288
H 346.06139167 20.21805856 -9.26604476     6     285    0    0    0
H 343.76258361 19.98638585 -11.73532384     6     285    0    0    0
C 347.22121721 18.20204486 -12.54237348     2     285   289   290   291
H 347.03364009 18.19427701 -14.48768267     6    288    0    0    0
H 349.23512089 18.37972784 -12.56141337     6    288    0    0    0
C 346.43901591 15.71187144 -11.36235561     2    288   292   293   294
H 346.67288671 15.84741176 -9.32375277     6    291    0    0    0
H 344.44372945 15.66371674 -11.38026809     6    291    0    0    0
C 348.08904792 13.57481119 -12.34215747     2    291   295   296   297
H 348.38989313 13.72105737 -14.34712594     6    294    0    0    0
H 349.99696880 13.83552332 -11.74265638     6    294    0    0    0
C 347.31307451 10.83506854 -11.65882883     2    294   298   299   300

   18   -1830.4800192303      7.55E-09 Convergence criterion met
 Total energy in the final basis set = -1828.24791253
 Total job time:  16.43s(wall), 29.46s(cpu)
        *  Thank you very much for using Q-Chem.  Have a nice day.  *

User input: 2 of 2

                  Welcome to Q-Chem
     A Quantum Leap Into The Future Of Chemistry

 Q-Chem 5.4 (devel), Q-Chem, Inc., Pleasanton, CA (2021)

 E. Epifanovsky,  A. T. B. Gilbert,  Xintian Feng,  Joonho Lee,  Yuezhi Mao,
 N. Mardirossian,  P. Pokhilko,  A. White,  M. Wormit,  M. P. Coons,
 A. L. Dempwolff,  Zhengting Gan,  D. Hait,  P. R. Horn,  L. D. Jacobson,
 I. Kaliman,  J. Kussmann,  A. W. Lange,  Ka Un Lao,  D. S. Levine,  Jie Liu,
 S. C. McKenzie,  A. F. Morrison,  K. Nanda,  F. Plasser,  D. R. Rehn,
 M. L. Vidal,  Zhi-Qiang You,  Ying Zhu,  B. Alam,  B. Albrecht,
 A. Aldossary,  E. Alguire,  J. H. Andersen,  D. Barton,  K. Begam,  A. Behn,
 Y. A. Bernard,  E. J. Berquist,  H. Burton,  A. Carreras,  K. Carter-Fenk,
 R. Chakraborty,  A. D. Chien,  K. D. Closser,  V. Cofer-Shabica,
 S. Dasgupta,  Jia Deng,  M. de Wergifosse,  M. Diedenhofen,  Hainam Do,
 S. Ehlert,  Po-Tung Fang,  S. Fatehi,  Qingguo Feng,  T. Friedhoff,
 J. Gayvert,  Qinghui Ge,  G. Gidofalvi,  M. Goldey,  J. Gomes,
 C. Gonzalez-Espinoza,  S. Gulania,  A. Gunina,  M. W. D. Hanson-Heine,
 P. H. P. Harbach,  A. W. Hauser,  M. F. Herbst,  M. Hernandez Vera,
 M. Hodecker,  Z. C. Holden,  S. Houck,  Xunkun Huang,  Kerwin Hui,
 B. C. Huynh,  M. Ivanov,  Hyunjun Ji,  Hanjie Jiang,  B. Kaduk,  S. Kaehler,
 K. Khistyaev,  Jaehoon Kim,  P. Klunzinger,  Z. Koczor-Benda,
 Joong Hoon Koh,  D. Kosenkov,  L. Koulias,  T. Kowalczyk,  C. M. Krauter,
 K. Kue,  A. Kunitsa,  T. Kus,  A. Landau,  K. V. Lawler,  D. Lefrancois,
 S. Lehtola,  Rain Li,  Yi-Pei Li,  Jiashu Liang,  M. Liebenthal,
 Hung-Hsuan Lin,  You-Sheng Lin,  Fenglai Liu,  Kuan-Yu Liu,
 M. Loipersberger,  A. Luenser,  A. Manjanath,  P. Manohar,  E. Mansoor,
 S. F. Manzer,  Shan-Ping Mao,  A. V. Marenich,  T. Markovich,  S. Mason,
 S. A. Maurer,  P. F. McLaughlin,  M. F. S. J. Menger,  J.-M. Mewes,
 S. A. Mewes,  P. Morgante,  J. W. Mullinax,  K. J. Oosterbaan,  G. Paran,
 Alexander C. Paul,  Suranjan K. Paul,  F. Pavosevic,  Zheng Pei,  S. Prager,
 E. I. Proynov,  E. Ramos,  B. Rana,  A. E. Rask,  A. Rettig,  R. M. Richard,
 F. Rob,  E. Rossomme,  T. Scheele,  M. Scheurer,  M. Schneider,
 N. Sergueev,  S. M. Sharada,  W. Skomorowski,  D. W. Small,  C. J. Stein,
 Yu-Chuan Su,  E. J. Sundstrom,  Zhen Tao,  J. Thirman,  T. Tsuchimochi,
 N. M. Tubman,  S. P. Veccham,  O. Vydrov,  J. Wenzel,  J. Witte,  A. Yamada,
 Kun Yao,  S. Yeganeh,  S. R. Yost,  A. Zech,  Igor Ying Zhang,  Xing Zhang,
 Yu Zhang,  D. Zuev,  A. Aspuru-Guzik,  A. T. Bell,  N. A. Besley,
 K. B. Bravaya,  B. R. Brooks,  D. Casanova,  Jeng-Da Chai,  S. Coriani,
 C. J. Cramer,  A. E. DePrince, III,  R. A. DiStasio Jr.,  A. Dreuw,
 B. D. Dunietz,  T. R. Furlani,  W. A. Goddard III,  S. Grimme,
 S. Hammes-Schiffer,  T. Head-Gordon,  W. J. Hehre,  Chao-Ping Hsu,
 T.-C. Jagau,  Yousung Jung,  A. Klamt,  Jing Kong,  D. S. Lambrecht,
 WanZhen Liang,  N. J. Mayhall,  C. W. McCurdy,  J. B. Neaton,
 C. Ochsenfeld,  J. A. Parkhill,  R. Peverati,  V. A. Rassolov,  Yihan Shao,
 L. V. Slipchenko,  T. Stauch,  R. P. Steele,  J. E. Subotnik,
 A. J. W. Thom,  A. Tkatchenko,  D. G. Truhlar,  T. Van Voorhis,
 T. A. Wesolowski,  K. B. Whaley,  H. L. Woodcock III,  P. M. Zimmerman,
 S. Faraji,  P. M. W. Gill,  M. Head-Gordon,  J. M. Herbert,  A. I. Krylov

 Additional authors for Version 5.4.1:
 S. Kotaru,  Shaozhi Li,  Xiangyuan Li,  F. Matz,  A. Molle,  Haisheng Ren,
 Yingli Su,  Hung-Yi Tsai,  C. Utku,  Fang Wang

 Contributors to earlier versions of Q-Chem not listed above:
 R. D. Adamson,  B. Austin,  R. Baer,  J. Baker,  G. J. O. Beran,
 K. Brandhorst,  S. T. Brown,  E. F. C. Byrd,  A. K. Chakraborty,
 G. K. L. Chan,  Chun-Min Chang,  Yunqing Chen,  C.-L. Cheng,
 Siu Hung Chien,  D. M. Chipman,  D. L. Crittenden,  H. Dachsel,
 R. J. Doerksen,  A. D. Dutoi,  R. G. Edgar,  J. Fosso-Tande,
 L. Fusti-Molnar,  D. Ghosh,  A. Ghysels,  A. Golubeva-Zadorozhnaya,
 J. Gonthier,  M. S. Gordon,  S. R. Gwaltney,  G. Hawkins,  J. E. Herr,
 A. Heyden,  S. Hirata,  E. G. Hohenstein,  G. Kedziora,  F. J. Keil,
 C. Kelley,  Jihan Kim,  R. A. King,  R. Z. Khaliullin,  P. P. Korambath,
 W. Kurlancheek,  A. Laurent,  A. M. Lee,  M. S. Lee,  S. V. Levchenko,
 Ching Yeh Lin,  D. Liotard,  E. Livshits,  R. C. Lochan,  I. Lotan,
 L. A. Martinez-Martinez,  P. E. Maslen,  N. Nair,  D. P. O'Neill,
 D. Neuhauser,  E. Neuscamman,  C. M. Oana,  R. Olivares-Amaya,  R. Olson,
 T. M. Perrine,  B. Peters,  P. A. Pieniazek,  A. Prociuk,  Y. M. Rhee,
 J. Ritchie,  M. A. Rohrdanz,  E. Rosta,  N. J. Russ,  H. F. Schaefer III,
 M. W. Schmidt,  N. E. Schultz,  S. Sharma,  N. Shenvi,  C. D. Sherrill,
 A. C. Simmonett,  A. Sodt,  T. Stein,  D. Stuck,  K. S. Thanthiriwatte,
 V. Vanovschi,  L. Vogt,  Tao Wang,  A. Warshel,  M. A. Watson,
 C. F. Williams,  Q. Wu,  X. Xu,  Jun Yang,  W. Zhang,  Yan Zhao

 Please cite Q-Chem as follows:
 Y. Shao et al., Mol. Phys. 113, 184-215 (2015)
 DOI: 10.1080/00268976.2014.952696

 Q-Chem 5.4.1 for Intel X86 EM64T Linux

 Parts of Q-Chem use Armadillo 9.900.5 (Nocturnal Misbehaviour).
 http://arma.sourceforge.net/

 Q-Chem begins on Wed Jun 22 16:37:58 2022

 Host: p09r16n03.grace.hpc.yale.internal
0

     Scratch files written to /home/tl686/scratch60/qchem_dev/scratch/qchem215431//
 Processing $rem in /home/tl686/qchem_dev/qchem/config/preferences:
 Processing $rem in /home/tl686/.qchemrc:
Applying user defined connections for MM calculations
The previous job contains 0 fragments, simply inherited here

 Checking the input file for inconsistencies... 	...done.

--------------------------------------------------------------
User input:
--------------------------------------------------------------

$molecule
READ
$end

$qm_atoms
1:11
$end

$force_field_params
NumAtomTypes 3
AtomType -1   0.0238     3.11   0.2868
AtomType -2   0.07124    3.30   0.6597
AtomType -3  -0.0760     3.09   0.1434
$end

$rem
     JOBTYPE  freq
     METHOD   bp86
     BASIS    def2-msvp
     MAX_SCF_CYCLES   800
     INPUT_BOHR TRUE
     SYM_IGNORE TRUE
     SCF_GUESS     read
     user_connect            true
     qm_mm_interface         ONIOM
     force_field             oplsaa
$end

--------------------------------------------------------------

    3   -1830.4800192310      4.64E-09 Convergence criterion met
 Total energy in the final basis set = -1828.24791253

                    Orbital Energies (a.u.)
 --------------------------------------------------------------

 Alpha MOs
 -- Occupied --
******** -29.6217 -25.5824 -25.5693 -25.5639 -18.9011 -18.8837 -18.8805
-18.8630 -18.8574 -10.0535 -10.0416 -10.0350 -10.0296 -10.0292  -3.3067
 -2.1440  -2.1197  -2.1062  -1.1064  -1.1057  -1.0821  -1.0427  -0.9969
 -0.5651  -0.5281  -0.5159  -0.5153  -0.5010  -0.4628  -0.4605  -0.4544
 -0.4521  -0.4492  -0.4396  -0.4353  -0.4296  -0.4147  -0.4095  -0.4069
 -0.4032  -0.3792  -0.3765  -0.3646  -0.2672  -0.2571  -0.2212  -0.2092

          Ground-State Mulliken Net Atomic Charges

     Atom                 Charge (a.u.)
  ----------------------------------------
      1 Fe                   -0.465688
      2 C                     0.175640
      3 C                     0.183525
      4 C                     0.183553
      5 C                     0.205088
      6 C                     0.155828
      7 O                    -0.117293
      8 O                    -0.027532
      9 O                    -0.039067
     10 O                    -0.062431
     11 O                    -0.191622
  ----------------------------------------
  Sum of atomic charges =     0.000000

                    Cartesian Multipole Moments
 -----------------------------------------------------------------
    Charge (ESU x 10^10)
                -0.0000
    Dipole Moment (Debye)
         X       1.2417263669      Y       1.3411476120      Z       0.7475223982
       Tot       1.9746774480
    Quadrupole Moments (Debye-Ang)
        XX     406.1240     XY     263.8540     YY     -50.8505
        XZ     115.1987     YZ     -23.4706     ZZ    -100.1210
