 Q-Chem 5.4 (devel), Q-Chem, Inc., Pleasanton, CA (2021)
 Q-Chem 5.4.1 for Intel X86 EM64T Linux

User input:
--------------------------------------------------------------
$molecule
0   1
 Fe 380.49724989 40.03989893 60.45950034    -1  0   0   0   0
C 379.52301046 36.90550160 59.78769963    -2  0   0   0   0
C 381.34269270 43.27627053 61.30633397    -2  0   0   0   0
C 383.55324544 38.86846611 61.30064603    -2  0   0   0   0
C 380.13224812 40.74172374 57.19150929    -2  0   0   0   0
C 378.25625775 40.08201512 62.91979240    -2  0   0   0   0
O 378.60648002 34.97808209 59.20225348    -3  0   0   0   0
O 381.86853018 45.41004498 61.65208011    -3  0   0   0   0
O 385.64604192 37.92464388 61.29584321    -3  0   0   0   0
O 380.48907177 41.02784248 55.02767791    -3  0   0   0   0
O 377.00220616 40.00266327 64.84789123    -3  0   0   0   0
H 402.15762404 18.71367516 48.24403690      6     13    0    0    0
C 401.34166122 18.03954141 46.50863570     1     12    14    15    16
H 402.96696541 17.95760039 45.16628392     6     13    0    0    0
H 400.49574821 16.29219768 46.78067241     6     13    0    0    0
C 399.52990346 19.85187572 45.31968184     2     13    17    18    19
H 400.35721481 21.64226777 45.19139270     6     16    0    0    0
H 399.40374992 19.38168072 43.25076292     6     16    0    0    0
C 396.86026589 20.09522625 46.27636255     2     16    20   21   22
H 396.01001028 18.31358200 46.31294075     6     19    0    0    0
H 396.87249784 20.77721862 48.28117256     6     19    0    0    0
C 395.29684783 21.89607414 44.45336296     2     19   23   24   25
H 396.14831011 23.68750508 44.93747307     6    22    0    0    0
H 395.78232011 21.40469944 42.52061287     6    22    0    0    0
C 392.45447981 21.83673213 44.83469373     2    22   26   27   28
H 391.66079986 19.94738123 44.48950120     6    25    0    0    0
H 392.12435142 22.28527888 46.83879613     6    25    0    0    0
C 391.05394060 23.87967660 43.03705042     2    25   29   30   31
H 391.96801878 25.94184932 42.90753935     6    28    0    0    0
H 391.16480099 23.09640769 41.04538356     6    28    0    0    0
C 388.20599033 24.27462528 43.64130619     2    28   32   33   34
H 387.20793285 22.48418900 43.63908195     6    31    0    0    0
H 387.81440413 25.39517265 45.47067698     6    31    0    0    0
C 386.86386412 25.61231028 41.37153243     2    31   35   36   37
H 388.20622558 27.30746606 41.10881256     6    34    0    0    0
H 387.04690125 24.45062672 39.74281336     6    34    0    0    0
C 384.24173771 26.64800662 41.86557698     2    34   38   39   40
H 382.74508503 25.55683635 42.83941786     6    37    0    0    0
H 384.29201826 28.22573994 43.30098229     6    37    0    0    0
C 383.04540826 27.81815173 39.35554444     2    37   41   42   43
H 384.14499948 29.41058684 38.97606981     6    40    0    0    0
H 383.21019945 26.70669042 37.78848069     6    40    0    0    0
C 380.31141192 28.70606908 39.41440305     2    40   44   45   46
H 379.07788685 27.01558242 39.36835161     6    43    0    0    0
H 380.18381153 29.74215515 41.18905149     6    43    0    0    0
C 379.52620764 30.39045691 37.10266900     1    43   47   48   49
H 380.88969626 31.91227603 36.74545014     6    46    0    0    0
H 377.67206815 31.13809708 37.41934287     6    46    0    0    0
H 379.47368887 29.25708493 35.40028665     6    46    0    0    0
H 374.41743845 35.01734518 53.14873769     6     51    0    0    0
C 375.47249503 35.71683554 51.44954664     1     50    52    53    54
H 374.25302360 36.99845203 50.18983479     6     51    0    0    0
H 376.82324199 37.11191807 52.29629464     6     51    0    0    0
C 376.73467876 33.50049422 50.06966140     2     51    55    56    57
H 378.21403785 32.88768734 51.35923212     6     54    0    0    0
H 375.36067431 31.98339660 49.85544614     6     54    0    0    0
C 378.03715131 33.98177088 47.58089152     2     54    58   59   60
H 379.06374543 35.75837366 47.80814661     6     57    0    0    0
H 379.36479752 32.51336829 47.03061425     6     57    0    0    0
C 376.22353399 34.39942117 45.42769746     2     57   61   62   63
H 374.69605090 32.90047970 45.24137262     6    60    0    0    0
H 375.23483595 36.04162974 45.89907316     6    60    0    0    0
C 377.37593190 34.89589687 42.79349627     2    60   64   65   66
H 378.17927048 36.75048278 42.65625920     6    63    0    0    0
H 378.81625569 33.49517549 42.33574461     6    63    0    0    0
C 375.29343527 34.55703816 40.86589801     2    63   67   68   69
H 376.18342474 34.53203403 39.06233895     6    66    0    0    0
H 374.32511009 32.70984854 41.08739844     6    66    0    0    0
C 372.99356311 36.40832149 41.18796924     2    66   70   71   72
H 372.02169163 35.83035456 42.87358864     6    69    0    0    0
H 373.65956589 38.37081849 41.49853717     6    69    0    0    0
C 371.06245769 36.09537465 38.97546993     2    69   73   74   75
H 371.78722560 36.76372822 37.10650570     6    72    0    0    0
H 370.38805139 34.04821584 38.87553514     6    72    0    0    0
C 368.74127404 37.80647187 39.50746986     2    72   76   77   78
H 367.41439103 36.59463231 40.48518010     6    75    0    0    0
H 369.37177874 39.43540484 40.60041961     6    75    0    0    0
C 367.48129691 38.71201375 37.00526372     2    75   79   80   81
H 368.90713900 39.86643018 36.00665167     6    78    0    0    0
H 366.84362744 37.11077359 35.80301184     6    78    0    0    0
C 365.14711905 40.43536844 37.55655482     2    78   82   83   84
H 363.80542827 39.50072784 38.81026452     6    81    0    0    0
H 365.68063550 42.09373027 38.60968031     6    81    0    0    0
C 363.61481410 41.12847056 35.23905705     1    81   85   86   87
H 362.14252464 42.34919165 35.23728090     6    84    0    0    0
H 362.89425541 39.41414392 34.25735135     6    84    0    0    0
H 365.01306275 42.16401280 33.97667214     6    84    0    0    0
H 410.90290092 44.74364853 35.54172370     6     89    0    0    0
C 409.28723604 43.97580236 36.38883911     1     88    90    91    92
H 409.49156123 43.43317631 38.33364342     6     89    0    0    0
H 408.04220193 45.48267542 36.60191612     6     89    0    0    0
C 408.16324590 41.78806298 34.91277018     2     89    93    94    95
H 408.57451372 42.27379448 32.91274604     6     92    0    0    0
H 409.27098363 40.00354449 35.34732367     6     92    0    0    0
C 405.27415247 41.15836025 35.23508907     2     92    96   97   98
H 404.96305883 40.81890734 37.20036822     6     95    0    0    0
H 403.92326621 42.79884604 34.85014896     6     95    0    0    0
C 404.60228656 38.68490770 33.77635852     2     95   99   100   101
H 405.10922569 38.72712866 31.78236514     6    98    0    0    0
H 405.53182342 36.96463527 34.63526022     6    98    0    0    0
C 401.81397825 38.04923010 33.56936068     2    98   102   103   104
H 400.83225737 37.75345187 35.49237594     6    101    0    0    0
H 400.91495134 39.64676046 32.62682546     6    101    0    0    0
C 401.37896618 35.69547492 31.95654897     2    101   105   106   107
H 402.07338525 35.67618813 30.03945454     6    104    0    0    0
H 402.05260808 34.01217883 32.93385143     6    104    0    0    0
C 398.50632942 35.40070955 31.81726524     2    104   108   109   110
H 397.62183971 35.91111020 33.67266118     6    107    0    0    0
H 397.86204109 36.82801420 30.56751652     6    107    0    0    0
C 397.89449240 32.78722408 30.65626270     2    107   111   112   113
H 399.05187218 32.42994130 28.96878217     6    110    0    0    0
H 398.50147088 31.32243342 32.10451106     6    110    0    0    0
C 395.11839485 32.42122264 30.01514404     2    110   114   115   116
H 394.27917544 32.49935529 31.86164868     6    113    0    0    0
H 394.58710931 33.71046293 28.71764132     6    113    0    0    0
C 394.56078153 29.87607928 28.71020008     2    113   117   118   119
H 395.45565414 29.84213407 26.88359417     6    116    0    0    0
H 395.68067973 28.51399728 29.63572295     6    116    0    0    0
C 391.69193549 28.99333870 28.63226653     2    116   120   121   122
H 391.05161525 29.15823194 30.63452924     6    119    0    0    0
H 390.54661558 30.46832533 27.70962394     6    119    0    0    0
C 391.15996754 26.39840588 27.67420619     1    119   123   124   125
H 389.09638647 26.04775979 27.62256246     6    122    0    0    0
H 392.06276017 24.84551534 28.62116673     6    122    0    0    0
H 392.07049920 26.26575662 25.85489320     6    122    0    0    0
H 407.29531056 34.36451072 47.51035589     6     127    0    0    0
C 406.36821774 35.67652599 48.89897352     1     126    128    129    130
H 407.64175532 37.32907439 49.22089759     6     127    0    0    0
H 404.61554841 36.55988200 48.09425837     6     127    0    0    0
C 405.60893556 34.30676158 51.30016205     2     127    131    132    133
H 404.42198578 32.89398885 50.48551846     6     130    0    0    0
H 407.07371621 33.16914689 52.22802166     6     130    0    0    0
C 403.93703062 35.70641998 53.30271627     2     130    134   135   136
H 405.21013556 37.00230983 54.17159208     6     133    0    0    0
H 402.58474746 36.92278327 52.30827168     6     133    0    0    0
C 402.84429380 34.13545995 55.42049393     2     133   137   138   139
H 401.66227365 32.52678272 54.74266295     6    136    0    0    0
H 404.40374772 33.12256764 56.51112435     6    136    0    0    0
C 401.49718039 35.88015687 57.31764613     2    136   140   141   142
H 402.64691033 37.39280603 57.99851532     6    139    0    0    0
H 399.75355632 36.60341640 56.43719739     6    139    0    0    0
C 400.49290105 34.48369908 59.64532256     2    139   143   144   145
H 399.12733668 33.20600487 58.95740552     6    142    0    0    0
H 401.78033337 33.17494756 60.49896054     6    142    0    0    0
C 399.72440397 36.18893795 61.77921078     2    142   146   147   148
H 401.40544056 37.03971022 62.56881495     6    145    0    0    0
H 398.55315767 37.76539882 61.19123438     6    145    0    0    0
C 398.43099663 34.48925886 63.96090322     2    145   149   150   151
H 397.21263011 33.04032895 63.06458086     6    148    0    0    0
H 399.84999050 33.38476118 65.04776361     6    148    0    0    0
C 396.89451064 35.98208443 66.02110241     2    148   152   153   154
H 397.82140348 37.64676003 66.67835374     6    151    0    0    0
H 395.09948090 36.67537376 65.31122231     6    151    0    0    0
C 396.31783294 34.25664883 68.40903574     2    151   155   156   157
H 394.47163479 34.77176676 69.26275241     6    154    0    0    0
H 395.93132800 32.24227912 68.00668404     6    154    0    0    0
C 398.58926370 34.08773800 70.16407741     2    154   158   159   160
H 399.73323380 32.60787530 69.38842553     6    157    0    0    0
H 399.56349340 35.86388156 70.08288588     6    157    0    0    0
C 397.96642096 33.55314808 72.92611429     1    157   161   162   163
H 396.94413091 35.31971991 73.36260977     6    160    0    0    0
H 399.61681969 33.39118973 74.13662111     6    160    0    0    0
H 396.68484786 31.94098190 73.22401556     6    160    0    0    0
H 402.52743442 63.13073456 32.64726519     6     165    0    0    0
C 402.99978145 64.01785533 34.44797958     1     164    166    167    168
H 404.12051566 65.50583098 33.67964338     6     165    0    0    0
H 401.28738057 64.81504146 35.33703035     6     165    0    0    0
C 404.24723109 62.14553500 36.34222774     2     165    169    170    171
H 402.93052681 60.74417301 36.93568230     6     168    0    0    0
H 405.63885188 61.10523602 35.06703496     6     168    0    0    0
C 405.41933444 63.64405041 38.72430173     2     168    172   173   174
H 406.73977407 65.06897394 38.01889288     6     171    0    0    0
H 403.96469511 64.81478304 39.46860627     6     171    0    0    0
C 406.72184897 61.75312185 40.76447573     2     171   175   176   177
H 405.29236838 60.36339951 41.44990315     6    174    0    0    0
H 408.24877196 60.93325410 39.82744899     6    174    0    0    0
C 407.72252709 63.29366102 42.97699869     2    174   178   179   180
H 409.36261872 64.38702911 42.50258815     6    177    0    0    0
H 406.30515985 64.63672049 43.52501954     6    177    0    0    0
C 408.41546496 61.53768215 45.25129131     2    177   181   182   183
H 407.00409102 60.18993629 45.43705316     6    180    0    0    0
H 410.22046460 60.62920635 44.87625296     6    180    0    0    0
C 408.47796006 63.17137082 47.78058431     2    180   184   185   186
H 409.73027326 64.74266447 47.62847659     6    183    0    0    0
H 406.52502472 63.80862606 47.94143182     6    183    0    0    0
C 409.02181849 61.36990827 49.87219798     2    183   187   188   189
H 407.84835821 59.61572832 49.80550460     6    186    0    0    0
H 410.95878773 60.74558463 49.79790846     6    186    0    0    0
C 408.59068548 62.52137564 52.45255813     2    186   190   191   192
H 409.84304537 64.12562091 52.56359332     6    189    0    0    0
H 406.72726985 63.16872167 52.42220331     6    189    0    0    0
C 409.09500913 60.65519442 54.69040900     2    189   193   194   195
H 407.55945046 59.35039439 54.89377312     6    192    0    0    0
H 410.76715132 59.42546990 54.71125900     6    192    0    0    0
C 409.12028720 62.10279167 57.21822261     2    192   196   197   198
H 410.89552495 63.28460797 57.45102434     6    195    0    0    0
H 407.35074967 63.18556828 57.14372717     6    195    0    0    0
C 409.22312130 60.48955919 59.64429737     1    195   199   200   201
H 408.97680737 61.71237381 61.29904589     6    198    0    0    0
H 410.98720334 59.41658044 59.76085444     6    198    0    0    0
H 407.76639967 59.10905927 59.68451489     6    198    0    0    0
H 390.27008067 72.41175811 37.78971687     6     203    0    0    0
C 389.10334671 71.51805172 36.41719523     1     202    204    205    206
H 389.42961723 72.10280284 34.46327573     6     203    0    0    0
H 389.42873155 69.47825489 36.23050821     6     203    0    0    0
C 386.41086228 72.20566030 37.22188522     2     203    207    208    209
H 386.34786514 74.18592562 37.80808628     6     206    0    0    0
H 385.11358006 71.88120734 35.69476302     6     206    0    0    0
C 385.89573850 70.70165049 39.58434678     2     206    210   211   212
H 386.19125502 68.76073872 39.12268780     6     209    0    0    0
H 387.24532891 70.74066952 41.13147963     6     209    0    0    0
C 383.24111136 71.38892608 40.62746307     2     209   213   214   215
H 383.43932414 73.05138173 41.80023382     6    212    0    0    0
H 381.88667824 71.73159843 39.35013650     6    212    0    0    0
C 382.28841178 69.51277877 42.61647305     2    212   216   217   218
H 382.97983211 67.71289644 42.13715939     6    215    0    0    0
H 383.23926593 69.90861560 44.42693245     6    215    0    0    0
C 379.37793720 69.49936757 42.76475446     2    215   219   220   221
H 378.65699651 71.43506586 42.91152550     6    218    0    0    0
H 378.57435964 68.81366376 41.00730458     6    218    0    0    0
C 378.39736331 67.91534117 44.97833296     2    218   222   223   224
H 378.75223703 66.03846014 44.48433825     6    221    0    0    0
H 379.43556181 68.44308536 46.72845298     6    221    0    0    0
C 375.67221821 68.54266643 45.40350133     2    221   225   226   227
H 375.25434680 70.45985727 45.99327076     6    224    0    0    0
H 374.60616543 68.41939896 43.74238909     6    224    0    0    0
C 374.44012632 66.67777518 47.32280124     2    224   228   229   230
H 374.64768013 64.67581888 47.01402464     6    227    0    0    0
H 375.23442562 67.24783974 49.08096498     6    227    0    0    0
C 371.57921207 67.15208965 47.26200495     2    227   231   232   233
H 370.94917013 69.11789760 47.12355761     6    230    0    0    0
H 370.84734034 66.39180514 45.42877286     6    230    0    0    0
C 370.25256389 65.84507135 49.51356295     2    230   234   235   236
H 370.39327219 63.75536504 49.32164842     6    233    0    0    0
H 371.04798605 66.29065421 51.30626175     6    233    0    0    0
C 367.30454808 66.41649576 49.77885317     1    233   237   238   239
H 366.57104724 65.67413208 51.58497274     6    236    0    0    0
H 366.18243307 65.67773141 48.35106542     6    236    0    0    0
H 367.07189497 68.47452987 49.90375946     6    236    0    0    0
H 377.89581674 29.12132249 29.87536407     6     241    0    0    0
C 377.41718180 31.17198765 30.15778827     1     240    242    243    244
H 377.68375012 31.43173952 32.14219321     6     241    0    0    0
H 378.97025982 31.96214428 29.18417837     6     241    0    0    0
C 374.63610504 31.75792393 29.31658971     2     241    245    246    247
H 374.56975479 31.75323842 27.13405994     6     244    0    0    0
H 373.28073836 30.42173670 30.03291886     6     244    0    0    0
C 373.77052423 34.43296516 29.83299947     2     244    248   249   250
H 374.10076484 35.01431489 31.73465694     6     247    0    0    0
H 375.13533273 35.79112362 28.78118942     6     247    0    0    0
C 370.99568858 35.14527549 29.43913949     2     247   251   252   253
H 370.88717211 37.17188567 29.69577393     6    250    0    0    0
H 370.40724712 34.96304883 27.50294346     6    250    0    0    0
C 369.04902207 33.81767273 30.99361344     2    250   254   255   256
H 369.08033900 31.97332068 30.39085614     6    253    0    0    0
H 369.64293598 33.83517643 33.01539142     6    253    0    0    0
C 366.26517827 34.74265248 30.70025622     2    253   257   258   259
H 366.41626992 36.80952894 30.94015419     6    256    0    0    0
H 365.48064865 34.41537925 28.85803250     6    256    0    0    0
C 364.43027618 33.44455431 32.48110597     2    256   260   261   262
H 364.98270444 31.58029633 32.27966898     6    259    0    0    0
H 364.71169181 33.95011134 34.48523092     6    259    0    0    0
C 361.58766010 34.06317473 32.10150774     2    259   263   264   265
H 361.09884891 35.95259551 32.30440633     6    262    0    0    0
H 361.06025830 33.76817943 30.13702958     6    262    0    0    0
C 359.77581578 32.66769256 33.89790011     2    262   266   267   268
H 360.02167261 30.59914544 33.94141060     6    265    0    0    0
H 359.89611640 33.52510207 35.83098290     6    265    0    0    0
C 357.13892505 32.91169872 32.70809263     2    265   269   270   271
H 356.61130573 34.91528744 32.52839720     6    268    0    0    0
H 357.16242500 32.00565825 30.84187832     6    268    0    0    0
C 355.24128962 31.38496241 34.18541242     2    268   272   273   274
H 355.81890757 29.48347778 33.99946409     6    271    0    0    0
H 355.22537036 31.88114625 36.17556138     6    271    0    0    0
C 352.61504673 31.41976878 33.04676747     1    271   275   276   277
H 351.95947402 33.35104017 32.62976181     6    274    0    0    0
H 351.24063463 30.63870341 34.44235286     6    274    0    0    0
H 352.37839806 30.23114243 31.40835223     6    274    0    0    0
H 398.73018434 59.37554432 31.28596213     6     279    0    0    0
C 397.91524382 57.38724857 31.22691668     1     278    280    281    282
H 397.52557497 56.88477427 29.19204174     6     279    0    0    0
H 399.52230024 56.22013591 31.61079991     6     279    0    0    0
C 395.87321331 57.06235900 33.12116914     2     279    283    284    285
H 396.64466676 57.14833784 34.93352279     6     282    0    0    0
H 394.54005539 58.57512130 32.85954292     6     282    0    0    0
C 394.97540973 54.24936310 32.87139212     2     282    286   287   288
H 394.03638567 53.96523182 31.11494781     6     285    0    0    0
H 396.72451446 53.01368692 32.84020819     6     285    0    0    0
C 393.38511217 53.45982808 35.01272780     2     285   289   290   291
H 393.45379006 51.43733809 34.84777445     6    288    0    0    0
H 394.14103594 54.07627425 36.83165008     6    288    0    0    0
C 390.62523510 54.51015473 34.63121431     2    288   292   293   294
H 390.58564032 56.47883430 35.12453218     6    291    0    0    0
H 390.12705054 54.30016135 32.71661180     6    291    0    0    0
C 388.69395179 53.12588845 36.32425374     2    291   295   296   297
H 388.74296582 51.06661631 36.30121894     6    294    0    0    0
H 388.86612743 53.46270247 38.42701614     6    294    0    0    0
C 385.96390738 53.89676714 35.74287399     2    294   298   299   300

   17   -1830.5089510082      2.93E-09 Convergence criterion met
 Total energy in the final basis set = -1828.17589568
 Total job time:  17.13s(wall), 30.29s(cpu)
        *  Thank you very much for using Q-Chem.  Have a nice day.  *

User input: 2 of 2

                  Welcome to Q-Chem
     A Quantum Leap Into The Future Of Chemistry

 Q-Chem 5.4 (devel), Q-Chem, Inc., Pleasanton, CA (2021)

 E. Epifanovsky,  A. T. B. Gilbert,  Xintian Feng,  Joonho Lee,  Yuezhi Mao,
 N. Mardirossian,  P. Pokhilko,  A. White,  M. Wormit,  M. P. Coons,
 A. L. Dempwolff,  Zhengting Gan,  D. Hait,  P. R. Horn,  L. D. Jacobson,
 I. Kaliman,  J. Kussmann,  A. W. Lange,  Ka Un Lao,  D. S. Levine,  Jie Liu,
 S. C. McKenzie,  A. F. Morrison,  K. Nanda,  F. Plasser,  D. R. Rehn,
 M. L. Vidal,  Zhi-Qiang You,  Ying Zhu,  B. Alam,  B. Albrecht,
 A. Aldossary,  E. Alguire,  J. H. Andersen,  D. Barton,  K. Begam,  A. Behn,
 Y. A. Bernard,  E. J. Berquist,  H. Burton,  A. Carreras,  K. Carter-Fenk,
 R. Chakraborty,  A. D. Chien,  K. D. Closser,  V. Cofer-Shabica,
 S. Dasgupta,  Jia Deng,  M. de Wergifosse,  M. Diedenhofen,  Hainam Do,
 S. Ehlert,  Po-Tung Fang,  S. Fatehi,  Qingguo Feng,  T. Friedhoff,
 J. Gayvert,  Qinghui Ge,  G. Gidofalvi,  M. Goldey,  J. Gomes,
 C. Gonzalez-Espinoza,  S. Gulania,  A. Gunina,  M. W. D. Hanson-Heine,
 P. H. P. Harbach,  A. W. Hauser,  M. F. Herbst,  M. Hernandez Vera,
 M. Hodecker,  Z. C. Holden,  S. Houck,  Xunkun Huang,  Kerwin Hui,
 B. C. Huynh,  M. Ivanov,  Hyunjun Ji,  Hanjie Jiang,  B. Kaduk,  S. Kaehler,
 K. Khistyaev,  Jaehoon Kim,  P. Klunzinger,  Z. Koczor-Benda,
 Joong Hoon Koh,  D. Kosenkov,  L. Koulias,  T. Kowalczyk,  C. M. Krauter,
 K. Kue,  A. Kunitsa,  T. Kus,  A. Landau,  K. V. Lawler,  D. Lefrancois,
 S. Lehtola,  Rain Li,  Yi-Pei Li,  Jiashu Liang,  M. Liebenthal,
 Hung-Hsuan Lin,  You-Sheng Lin,  Fenglai Liu,  Kuan-Yu Liu,
 M. Loipersberger,  A. Luenser,  A. Manjanath,  P. Manohar,  E. Mansoor,
 S. F. Manzer,  Shan-Ping Mao,  A. V. Marenich,  T. Markovich,  S. Mason,
 S. A. Maurer,  P. F. McLaughlin,  M. F. S. J. Menger,  J.-M. Mewes,
 S. A. Mewes,  P. Morgante,  J. W. Mullinax,  K. J. Oosterbaan,  G. Paran,
 Alexander C. Paul,  Suranjan K. Paul,  F. Pavosevic,  Zheng Pei,  S. Prager,
 E. I. Proynov,  E. Ramos,  B. Rana,  A. E. Rask,  A. Rettig,  R. M. Richard,
 F. Rob,  E. Rossomme,  T. Scheele,  M. Scheurer,  M. Schneider,
 N. Sergueev,  S. M. Sharada,  W. Skomorowski,  D. W. Small,  C. J. Stein,
 Yu-Chuan Su,  E. J. Sundstrom,  Zhen Tao,  J. Thirman,  T. Tsuchimochi,
 N. M. Tubman,  S. P. Veccham,  O. Vydrov,  J. Wenzel,  J. Witte,  A. Yamada,
 Kun Yao,  S. Yeganeh,  S. R. Yost,  A. Zech,  Igor Ying Zhang,  Xing Zhang,
 Yu Zhang,  D. Zuev,  A. Aspuru-Guzik,  A. T. Bell,  N. A. Besley,
 K. B. Bravaya,  B. R. Brooks,  D. Casanova,  Jeng-Da Chai,  S. Coriani,
 C. J. Cramer,  A. E. DePrince, III,  R. A. DiStasio Jr.,  A. Dreuw,
 B. D. Dunietz,  T. R. Furlani,  W. A. Goddard III,  S. Grimme,
 S. Hammes-Schiffer,  T. Head-Gordon,  W. J. Hehre,  Chao-Ping Hsu,
 T.-C. Jagau,  Yousung Jung,  A. Klamt,  Jing Kong,  D. S. Lambrecht,
 WanZhen Liang,  N. J. Mayhall,  C. W. McCurdy,  J. B. Neaton,
 C. Ochsenfeld,  J. A. Parkhill,  R. Peverati,  V. A. Rassolov,  Yihan Shao,
 L. V. Slipchenko,  T. Stauch,  R. P. Steele,  J. E. Subotnik,
 A. J. W. Thom,  A. Tkatchenko,  D. G. Truhlar,  T. Van Voorhis,
 T. A. Wesolowski,  K. B. Whaley,  H. L. Woodcock III,  P. M. Zimmerman,
 S. Faraji,  P. M. W. Gill,  M. Head-Gordon,  J. M. Herbert,  A. I. Krylov

 Additional authors for Version 5.4.1:
 S. Kotaru,  Shaozhi Li,  Xiangyuan Li,  F. Matz,  A. Molle,  Haisheng Ren,
 Yingli Su,  Hung-Yi Tsai,  C. Utku,  Fang Wang

 Contributors to earlier versions of Q-Chem not listed above:
 R. D. Adamson,  B. Austin,  R. Baer,  J. Baker,  G. J. O. Beran,
 K. Brandhorst,  S. T. Brown,  E. F. C. Byrd,  A. K. Chakraborty,
 G. K. L. Chan,  Chun-Min Chang,  Yunqing Chen,  C.-L. Cheng,
 Siu Hung Chien,  D. M. Chipman,  D. L. Crittenden,  H. Dachsel,
 R. J. Doerksen,  A. D. Dutoi,  R. G. Edgar,  J. Fosso-Tande,
 L. Fusti-Molnar,  D. Ghosh,  A. Ghysels,  A. Golubeva-Zadorozhnaya,
 J. Gonthier,  M. S. Gordon,  S. R. Gwaltney,  G. Hawkins,  J. E. Herr,
 A. Heyden,  S. Hirata,  E. G. Hohenstein,  G. Kedziora,  F. J. Keil,
 C. Kelley,  Jihan Kim,  R. A. King,  R. Z. Khaliullin,  P. P. Korambath,
 W. Kurlancheek,  A. Laurent,  A. M. Lee,  M. S. Lee,  S. V. Levchenko,
 Ching Yeh Lin,  D. Liotard,  E. Livshits,  R. C. Lochan,  I. Lotan,
 L. A. Martinez-Martinez,  P. E. Maslen,  N. Nair,  D. P. O'Neill,
 D. Neuhauser,  E. Neuscamman,  C. M. Oana,  R. Olivares-Amaya,  R. Olson,
 T. M. Perrine,  B. Peters,  P. A. Pieniazek,  A. Prociuk,  Y. M. Rhee,
 J. Ritchie,  M. A. Rohrdanz,  E. Rosta,  N. J. Russ,  H. F. Schaefer III,
 M. W. Schmidt,  N. E. Schultz,  S. Sharma,  N. Shenvi,  C. D. Sherrill,
 A. C. Simmonett,  A. Sodt,  T. Stein,  D. Stuck,  K. S. Thanthiriwatte,
 V. Vanovschi,  L. Vogt,  Tao Wang,  A. Warshel,  M. A. Watson,
 C. F. Williams,  Q. Wu,  X. Xu,  Jun Yang,  W. Zhang,  Yan Zhao

 Please cite Q-Chem as follows:
 Y. Shao et al., Mol. Phys. 113, 184-215 (2015)
 DOI: 10.1080/00268976.2014.952696

 Q-Chem 5.4.1 for Intel X86 EM64T Linux

 Parts of Q-Chem use Armadillo 9.900.5 (Nocturnal Misbehaviour).
 http://arma.sourceforge.net/

 Q-Chem begins on Wed Jun  1 23:30:40 2022

 Host: p09r14n13.grace.hpc.yale.internal
0

     Scratch files written to /home/tl686/scratch60/qchem_dev/scratch/qchem244051//
 Processing $rem in /home/tl686/qchem_dev/qchem/config/preferences:
 Processing $rem in /home/tl686/.qchemrc:
Applying user defined connections for MM calculations
The previous job contains 0 fragments, simply inherited here

 Checking the input file for inconsistencies... 	...done.

--------------------------------------------------------------
User input:
--------------------------------------------------------------

$molecule
READ
$end

$qm_atoms
1:11
$end

$force_field_params
NumAtomTypes 3
AtomType -1   0.0238     3.11   0.2868
AtomType -2   0.07124    3.30   0.6597
AtomType -3  -0.0760     3.09   0.1434
$end

$rem
     JOBTYPE  freq
     METHOD   bp86
     BASIS    def2-msvp
     MAX_SCF_CYCLES   800
     INPUT_BOHR TRUE
     SYM_IGNORE TRUE
     SCF_GUESS     read
     user_connect            true
     qm_mm_interface         ONIOM
     force_field             oplsaa
$end

--------------------------------------------------------------

    2   -1830.5089510084      8.31E-09 Convergence criterion met
 Total energy in the final basis set = -1828.17589568

                    Orbital Energies (a.u.)
 --------------------------------------------------------------

 Alpha MOs
 -- Occupied --
******** -29.6453 -25.6045 -25.5906 -25.5903 -18.8950 -18.8918 -18.8763
-18.8737 -18.8728 -10.0660 -10.0647 -10.0515 -10.0508 -10.0439  -3.3318
 -2.1666  -2.1413  -2.1385  -1.0610  -1.0590  -1.0458  -1.0194  -1.0172
 -0.5848  -0.5339  -0.5235  -0.5213  -0.5189  -0.4600  -0.4458  -0.4407
 -0.4342  -0.4329  -0.4321  -0.4293  -0.4152  -0.4090  -0.4056  -0.4001
 -0.3957  -0.3942  -0.3923  -0.3745  -0.2875  -0.2845  -0.2435  -0.2311

          Ground-State Mulliken Net Atomic Charges

     Atom                 Charge (a.u.)
  ----------------------------------------
      1 Fe                   -0.498354
      2 C                     0.208038
      3 C                     0.233001
      4 C                     0.263538
      5 C                     0.230421
      6 C                     0.224942
      7 O                    -0.112075
      8 O                    -0.112028
      9 O                    -0.156590
     10 O                    -0.120120
     11 O                    -0.160773
  ----------------------------------------
  Sum of atomic charges =     0.000000

                    Cartesian Multipole Moments
 -----------------------------------------------------------------
    Charge (ESU x 10^10)
                -0.0000
    Dipole Moment (Debye)
         X      -0.2130524310      Y       0.1860886597      Z       0.0005224226
       Tot       0.2828791271
    Quadrupole Moments (Debye-Ang)
        XX    -156.6825     XY      33.3468     YY     -60.7271
        XZ      -4.9316     YZ       6.0942     ZZ     -71.0893

 Frequency:        62.87                  83.20                 110.72
 Force Cnst:      0.0347                 0.0611                 0.1133
 Red. Mass:      14.8955                14.9874                15.6819
 IR Intens:        0.000                  0.000                  0.000
 Frequency:       134.01                 141.52                 163.96
 Force Cnst:      0.1725                 0.1951                 0.2835
 Red. Mass:      16.3060                16.5364                17.8985
 IR Intens:        0.000                  0.000                  0.000
 Frequency:       171.20                 411.93                 418.04
 Force Cnst:      0.2889                 1.3157                 1.3184
 Red. Mass:      16.7323                13.1603                12.8048
 IR Intens:        0.000                  0.000                  0.000
 Frequency:       438.48                 460.10                 463.82
 Force Cnst:      1.6087                 1.7478                 1.6838
 Red. Mass:      14.2014                14.0133                13.2841
 IR Intens:        0.000                  0.000                  0.000
 Frequency:       496.82                 502.41                 531.53
 Force Cnst:      2.0687                 2.0246                 2.4345
 Red. Mass:      14.2248                13.6137                14.6253
 IR Intens:        0.000                  0.000                  0.000
 Frequency:       538.68                 583.68                 593.89
 Force Cnst:      2.4395                 2.7119                 2.8777
 Red. Mass:      14.2692                13.5108                13.8477
 IR Intens:        0.000                  0.000                  0.000
 Frequency:       615.64                 661.46                 684.86
 Force Cnst:      2.7976                 4.1530                 4.4482
 Red. Mass:      12.5280                16.1106                16.0962
 IR Intens:        0.000                  0.000                  0.000
 Frequency:       695.66                1680.43                1717.39
 Force Cnst:      5.0244                22.0757                22.9635
 Red. Mass:      17.6212                13.2685                13.2146
 IR Intens:        0.000                  0.000                  0.000
 Frequency:      1929.83                1982.32                2028.89
 Force Cnst:     29.2753                30.7687                32.1600
 Red. Mass:      13.3418                13.2896                13.2601
 IR Intens:        0.000                  0.000                  0.000

 STANDARD THERMODYNAMIC QUANTITIES AT   298.15 K  AND     1.00 ATM

   This Molecule has  0 Imaginary Frequencies
   Zero point vibrational energy:       26.166 kcal/mol

   Atom    1 Element Fe Has Mass   55.93490
   Atom    2 Element C  Has Mass   12.00000
   Atom    3 Element C  Has Mass   12.00000
   Atom    4 Element C  Has Mass   12.00000
   Atom    5 Element C  Has Mass   12.00000
   Atom    6 Element C  Has Mass   12.00000
   Atom    7 Element O  Has Mass   15.99491
   Atom    8 Element O  Has Mass   15.99491
   Atom    9 Element O  Has Mass   15.99491
   Atom   10 Element O  Has Mass   15.99491
   Atom   11 Element O  Has Mass   15.99491
   Molecular Mass:   195.909450 amu
   Principal axes and moments of inertia in amu*Bohr^2:
                             1           2           3
    Eigenvalues --     1895.54368  2068.54111  2402.47539
          X               0.18876    -0.54520     0.81678
          Y               0.92066    -0.19114    -0.34036
          Z               0.34169     0.81622     0.46587
   Rotational Symmetry Number is   1
   The Molecule is an Asymmetric Top
   Translational Enthalpy:        0.889 kcal/mol
   Rotational Enthalpy:           0.889 kcal/mol
   Vibrational Enthalpy:         31.135 kcal/mol
   gas constant (RT):             0.592 kcal/mol
   Translational Entropy:        41.722  cal/mol.K
   Rotational Entropy:           30.622  cal/mol.K
   Vibrational Entropy:          31.041  cal/mol.K

   Total Enthalpy:               33.504 kcal/mol
   Total Entropy:               103.385  cal/mol.K

 Total job time:  127.92s(wall), 252.11s(cpu)
        *  Thank you very much for using Q-Chem.  Have a nice day.  *
