 Q-Chem 5.4 (devel), Q-Chem, Inc., Pleasanton, CA (2021)
 Q-Chem 5.4.1 for Intel X86 EM64T Linux

User input:
--------------------------------------------------------------
$molecule
0   1
 Fe 380.12465585 39.81532883 60.52448550    -1  0   0   0   0
C 378.59166535 37.01971502 59.36915189    -2  0   0   0   0
C 381.51997580 42.51589294 62.01440868    -2  0   0   0   0
C 383.19054815 38.39416218 60.34373540    -2  0   0   0   0
C 379.66790073 41.20794314 57.49601644    -2  0   0   0   0
C 377.86923757 39.66943244 63.17899030    -2  0   0   0   0
O 377.42788248 35.21696336 58.80199578    -3  0   0   0   0
O 382.33657420 44.22178350 62.98237747    -3  0   0   0   0
O 385.08030041 37.35298163 59.94672637    -3  0   0   0   0
O 379.87910839 42.04465448 55.35844691    -3  0   0   0   0
O 376.53776913 39.41169284 64.95398014    -3  0   0   0   0
H 398.96185838 19.54807752 46.82878303      6     13    0    0    0
C 399.35729681 17.88608703 45.87559863     1     12    14    15    16
H 401.08685674 18.40399097 44.84875736     6     13    0    0    0
H 399.68703789 16.34806902 47.26659312     6     13    0    0    0
C 396.98733878 16.99054315 44.24121682     2     13    17    18    19
H 397.39709164 17.12360197 42.27912285     6     16    0    0    0
H 396.36116700 15.00866207 44.64610819     6     16    0    0    0
C 394.70130853 18.67244543 45.03641669     2     16    20   21   22
H 394.24207248 18.71460533 46.88850915     6     19    0    0    0
H 395.27834178 20.65652980 44.43299434     6     19    0    0    0
C 392.26712270 18.15925179 43.68839508     2     19   23   24   25
H 392.69699351 18.05688456 41.70388017     6    22    0    0    0
H 391.60810308 16.29028246 44.20327436     6    22    0    0    0
C 390.26707666 20.20820850 44.00517364     2    22   26   27   28
H 390.17489258 20.70037052 45.94993473     6    25    0    0    0
H 390.90282800 21.93521665 42.86390374     6    25    0    0    0
C 387.40027095 19.49374960 43.45943326     2    25   29   30   31
H 387.15550051 18.50498308 41.60367611     6    28    0    0    0
H 386.73011936 17.92547615 44.68853592     6    28    0    0    0
C 385.63608325 21.74676534 43.62578588     2    28   32   33   34
H 383.73454274 21.06434552 43.48290151     6    31    0    0    0
H 385.57476044 22.51084082 45.62831694     6    31    0    0    0
C 385.99437888 23.99531538 41.79608667     2    31   35   36   37
H 387.85458073 24.52208369 41.51722380     6    34    0    0    0
H 385.49157249 23.48551961 39.86600114     6    34    0    0    0
C 384.27818502 26.44156590 42.19906451     2    34   38   39   40
H 382.31815356 25.81833251 42.89432151     6    37    0    0    0
H 384.97242836 27.31067907 43.80079454     6    37    0    0    0
C 384.01895401 28.11060396 39.87504226     2    37   41   42   43
H 385.83755660 28.81934043 39.05259547     6    40    0    0    0
H 383.40101382 26.87024681 38.31270542     6    40    0    0    0
C 382.03571447 30.12382590 40.48098254     2    40   44   45   46
H 380.09148381 29.37736893 40.89894361     6    43    0    0    0
H 382.80581413 31.12631993 42.21649947     6    43    0    0    0
C 381.60012095 32.14627601 38.45305974     1    43   47   48   49
H 383.34314997 33.24543644 38.07085446     6    46    0    0    0
H 380.05451633 33.55654828 38.42770802     6    46    0    0    0
H 381.09380625 31.02185098 36.72781001     6    46    0    0    0
H 377.03386408 37.43753298 54.13277536     6     51    0    0    0
C 377.52665564 36.94481652 52.07428540     1     50    52    53    54
H 376.26094318 37.89627509 50.75499790     6     51    0    0    0
H 379.43557491 37.58004552 51.85844672     6     51    0    0    0
C 377.42932958 34.16309345 51.42910555     2     51    55    56    57
H 378.64324887 33.21161884 52.79390364     6     54    0    0    0
H 375.52651932 33.47495986 51.75249553     6     54    0    0    0
C 378.46171261 33.35938912 48.77335823     2     54    58   59   60
H 380.36429138 34.04007076 48.53822498     6     57    0    0    0
H 378.68114470 31.30822867 48.65895725     6     57    0    0    0
C 376.58128305 34.43790773 46.78983103     2     57   61   62   63
H 374.78410128 33.37094317 46.94806187     6    60    0    0    0
H 375.95447035 36.30021405 47.32070515     6    60    0    0    0
C 377.47391539 34.50149865 44.01020822     2    60   64   65   66
H 379.02103938 35.90243394 43.78220797     6    63    0    0    0
H 378.44359168 32.70324760 43.70844334     6    63    0    0    0
C 375.37077500 35.01639345 42.03926246     2    63   67   68   69
H 376.34418964 35.28323054 40.24750543     6    66    0    0    0
H 374.39953106 33.13706513 41.89718433     6    66    0    0    0
C 373.31118939 37.03391032 42.76711021     2    66   70   71   72
H 372.26239464 36.25068928 44.38508151     6    69    0    0    0
H 374.13749963 38.85650904 43.11675151     6    69    0    0    0
C 371.45596391 37.24621480 40.58254045     2    69   73   74   75
H 372.64069095 38.16907427 39.26941654     6    72    0    0    0
H 370.98337754 35.35689838 40.00977090     6    72    0    0    0
C 369.19632394 38.97577838 41.04674718     2    72   76   77   78
H 367.90464223 38.15101143 42.35876025     6    75    0    0    0
H 369.82970938 40.75738086 41.86898600     6    75    0    0    0
C 367.61876874 39.86372289 38.70836496     2    75   79   80   81
H 368.76626989 40.57052340 37.24623560     6    78    0    0    0
H 366.71082915 38.08753771 38.01545991     6    78    0    0    0
C 365.56126130 41.87989351 39.27517025     2    78   82   83   84
H 364.44054437 41.12916965 40.76841191     6    81    0    0    0
H 366.58690099 43.40933117 40.08336400     6    81    0    0    0
C 363.79276020 42.81544110 37.10507542     1    81   85   86   87
H 362.55026508 44.20824484 37.92069109     6    84    0    0    0
H 362.51233167 41.21827999 36.66670700     6    84    0    0    0
H 365.09984206 43.19315880 35.42985059     6    84    0    0    0
H 410.98162780 43.42297727 34.87337637     6     89    0    0    0
C 408.92285241 43.26226205 34.12684680     1     88    90    91    92
H 407.54714887 43.99988178 35.64653177     6     89    0    0    0
H 408.61810560 44.09754853 32.21874274     6     89    0    0    0
C 408.33691149 40.46695458 33.83775666     2     89    93    94    95
H 409.34249224 39.59018439 32.28788671     6     92    0    0    0
H 409.16472804 39.42932102 35.48057542     6     92    0    0    0
C 405.54834258 40.08150614 33.28893513     2     92    96   97   98
H 404.48743031 40.97710784 34.82899182     6     95    0    0    0
H 405.11818213 41.14549436 31.53863059     6     95    0    0    0
C 404.74719593 37.30917672 33.03158754     2     95   99   100   101
H 405.59150092 36.52936952 31.39180820     6    98    0    0    0
H 405.30884963 36.31753585 34.78726441     6    98    0    0    0
C 401.87372893 37.04986788 32.58862401     2    98   102   103   104
H 400.76007442 37.33202596 34.29796182     6    101    0    0    0
H 401.41948876 38.15288545 31.06937537     6    101    0    0    0
C 401.00235405 34.44493891 31.58804213     2    101   105   106   107
H 401.63867066 34.30083211 29.71366358     6    104    0    0    0
H 401.85087295 32.88807066 32.62666613     6    104    0    0    0
C 398.17352798 34.14879505 31.34797420     2    104   108   109   110
H 397.23717977 34.37376906 33.20246282     6    107    0    0    0
H 397.44774099 35.54532156 30.04730437     6    107    0    0    0
C 397.65513745 31.50492866 30.27966448     2    107   111   112   113
H 398.73466628 31.02505533 28.64725296     6    110    0    0    0
H 398.35033173 30.25181199 31.77122378     6    110    0    0    0
C 394.81668409 30.87215921 29.81190423     2    110   114   115   116
H 394.00317949 30.67884490 31.78739853     6    113    0    0    0
H 394.06349173 32.56677988 29.10735318     6    113    0    0    0
C 394.30845219 28.45988885 28.37092374     2    113   117   118   119
H 394.67748787 28.95398562 26.38833740     6    116    0    0    0
H 395.77099611 27.13084737 28.98728002     6    116    0    0    0
C 391.60154329 27.71016023 28.87943567     2    116   120   121   122
H 390.97810193 27.67008261 30.80089940     6    119    0    0    0
H 390.26480903 28.97237608 27.95341285     6    119    0    0    0
C 391.29840561 25.17207849 27.61790768     1    119   123   124   125
H 389.31121047 24.43670701 27.95791955     6    122    0    0    0
H 392.76258598 23.89559854 28.35367003     6    122    0    0    0
H 391.24503883 25.49748723 25.54906398     6    122    0    0    0
H 407.57982364 33.87277432 47.42625790     6     127    0    0    0
C 405.97288507 34.82714215 48.16368410     1     126    128    129    130
H 405.98163958 36.72068775 47.32650937     6     127    0    0    0
H 404.35672901 33.79108515 47.39915569     6     127    0    0    0
C 406.17030443 34.80840157 51.05380861     2     127    131    132    133
H 406.35462400 32.77703597 51.53238951     6     130    0    0    0
H 407.91673979 35.96647002 51.29094499     6     130    0    0    0
C 403.73222586 35.97157695 52.12127107     2     130    134   135   136
H 403.48660630 38.01288003 51.95535554     6     133    0    0    0
H 402.15474261 35.02627649 51.14177281     6     133    0    0    0
C 403.34850285 35.01372649 54.92444332     2     133   137   138   139
H 403.23224741 32.96041620 54.97097528     6    136    0    0    0
H 405.13874806 35.45739731 55.85071428     6    136    0    0    0
C 401.19442092 35.92336965 56.53553309     2    136   140   141   142
H 401.00744518 37.98288685 56.45905860     6    139    0    0    0
H 399.33944331 35.20584697 55.81888234     6    139    0    0    0
C 401.52099610 35.14429254 59.31259302     2    139   143   144   145
H 401.47728361 33.23351699 59.52410661     6    142    0    0    0
H 403.19882809 35.86534012 60.23574823     6    142    0    0    0
C 399.18091679 35.94728032 60.96664754     2    142   146   147   148
H 398.60723051 38.03973950 60.83644629     6    145    0    0    0
H 397.56015317 34.78933393 60.38425306     6    145    0    0    0
C 399.23942634 35.18435838 63.76752057     2    145   149   150   151
H 399.28212249 33.11028705 64.03933042     6    148    0    0    0
H 401.09683910 35.88978982 64.49649221     6    148    0    0    0
C 397.19497143 36.27392443 65.45199539     2    148   152   153   154
H 397.48309039 38.23917315 65.24174287     6    151    0    0    0
H 395.45023480 35.65046142 64.55841284     6    151    0    0    0
C 397.31465811 35.48394688 68.05849466     2    151   155   156   157
H 395.94694557 36.56702781 69.19554433     6    154    0    0    0
H 396.72187566 33.49068576 67.95248149     6    154    0    0    0
C 399.87607458 36.02663602 69.43251449     2    154   158   159   160
H 401.22868888 34.93461843 68.25532204     6    157    0    0    0
H 400.51423132 38.06952839 69.71926393     6    157    0    0    0
C 400.08122025 34.82838109 71.99339181     1    157   161   162   163
H 398.83405034 35.76607004 73.29417280     6    160    0    0    0
H 402.01387986 34.76598513 72.77628190     6    160    0    0    0
H 399.52016019 32.85516700 71.82024899     6    160    0    0    0
H 404.59568768 64.72857908 30.92191354     6     165    0    0    0
C 406.17227619 64.32339555 32.15483564     1     164    166    167    168
H 407.38123619 62.85771708 31.46372342     6     165    0    0    0
H 407.44245455 65.97543987 32.10710110     6     165    0    0    0
C 405.32066516 63.56300585 34.74168744     2     165    169    170    171
H 403.47716598 64.34741471 35.19332566     6     168    0    0    0
H 404.88953893 61.44322764 34.70539307     6     168    0    0    0
C 407.17148400 64.07356715 36.97924844     2     168    172   173   174
H 408.85125203 62.82299178 36.65116092     6     171    0    0    0
H 407.74349350 66.01104192 36.77132873     6     171    0    0    0
C 405.75536316 63.34796464 39.46768652     2     171   175   176   177
H 403.95377304 64.44781499 39.40502216     6    174    0    0    0
H 405.20384262 61.47429201 39.29306254     6    174    0    0    0
C 407.28955168 63.94656697 41.74947568     2    174   178   179   180
H 409.32910269 63.61432694 41.29361208     6    177    0    0    0
H 407.13475794 66.03313726 42.03240246     6    177    0    0    0
C 406.49292536 62.55206210 44.19148674     2    177   181   182   183
H 404.53507095 62.99677923 44.61728442     6    180    0    0    0
H 406.89083438 60.46781104 44.03841515     6    180    0    0    0
C 408.34815082 63.49840821 46.37009613     2    180   184   185   186
H 410.14997912 63.04839664 45.73763204     6    183    0    0    0
H 408.24191910 65.47686817 46.44569984     6    183    0    0    0
C 408.02270758 62.17975189 48.97183688     2    183   187   188   189
H 406.10842451 62.20873300 49.91265768     6    186    0    0    0
H 408.21747027 60.17972187 48.70932529     6    186    0    0    0
C 410.03580264 63.12928324 50.92954631     2    186   190   191   192
H 411.79659899 63.55510349 49.93115438     6    189    0    0    0
H 409.37342597 64.98552730 51.67758651     6    189    0    0    0
C 410.52167173 61.21546343 53.07206668     2    189   193   194   195
H 408.90412229 61.09868954 54.25442279     6    192    0    0    0
H 410.82935797 59.23498679 52.52822202     6    192    0    0    0
C 412.71286942 62.23507590 54.75776712     2    192   196   197   198
H 414.31262866 62.18494687 53.48345081     6    195    0    0    0
H 412.50791530 64.11228474 55.25219678     6    195    0    0    0
C 413.36946248 60.56028515 56.91840734     1    195   199   200   201
H 415.00136519 61.05740493 58.19191343     6    198    0    0    0
H 413.64816635 58.54786879 56.26913255     6    198    0    0    0
H 411.67307361 60.41639929 58.12305985     6    198    0    0    0
H 386.27240284 71.27513529 36.91746455     6     203    0    0    0
C 385.43905276 69.41283751 36.73143582     1     202    204    205    206
H 385.49103542 69.14219721 34.64588256     6     203    0    0    0
H 386.77978004 68.21089942 37.79207579     6     203    0    0    0
C 382.62567210 69.19403276 37.31668962     2     203    207    208    209
H 381.58191385 70.56342503 36.22129728     6     206    0    0    0
H 381.90733033 67.50000787 36.50560895     6     206    0    0    0
C 382.22773579 69.40032040 40.24532216     2     206    210   211   212
H 383.11251913 67.83528864 41.20128277     6     209    0    0    0
H 383.19540185 71.14906459 41.00516812     6     209    0    0    0
C 379.47160076 69.80111435 40.70616496     2     209   213   214   215
H 378.56808796 71.40906614 39.47900307     6    212    0    0    0
H 378.35790531 68.07865787 40.46037528     6    212    0    0    0
C 379.23255305 70.42239786 43.56752366     2    212   216   217   218
H 380.25244557 69.04555510 44.63613917     6    215    0    0    0
H 379.85291935 72.36018055 44.04342504     6    215    0    0    0
C 376.44598700 70.27058806 44.48432751     2    215   219   220   221
H 375.16522266 71.84785791 43.96464047     6    218    0    0    0
H 375.84235085 68.40433449 43.77068049     6    218    0    0    0
C 376.37732303 70.21547634 47.41289563     2    218   222   223   224
H 378.07461064 69.41507107 48.22261806     6    221    0    0    0
H 376.39770715 72.16368191 48.06006044     6    221    0    0    0
C 373.89736668 69.11541143 48.52565339     2    221   225   226   227
H 373.63190248 69.61780827 50.45481166     6    224    0    0    0
H 372.16220585 69.92258205 47.76378704     6    224    0    0    0
C 373.75606430 66.15920367 48.68550348     2    224   228   229   230
H 374.44187237 65.37012988 46.95199707     6    227    0    0    0
H 374.98629770 65.30430102 50.11273455     6    227    0    0    0
C 371.15136417 65.18246692 49.31621361     2    227   231   232   233
H 370.45329640 65.63121701 51.10857037     6    230    0    0    0
H 370.03637193 66.00058212 47.76358743     6    230    0    0    0
C 371.05552645 62.33083238 49.02319784     2    230   234   235   236
H 372.02599119 61.63968283 47.36722155     6    233    0    0    0
H 371.67369945 61.30377218 50.61035406     6    233    0    0    0
C 368.25552711 61.43053977 48.71557066     1    233   237   238   239
H 368.16161714 59.35984953 48.43505230     6    236    0    0    0
H 367.26667295 62.24827343 47.22025312     6    236    0    0    0
H 367.24264499 61.62878844 50.56276960     6    236    0    0    0
H 379.76740039 32.61776209 30.15844510     6     241    0    0    0
C 379.03401783 34.41285512 29.33733421     1     240    242    243    244
H 379.82136828 35.92459679 30.42988534     6     241    0    0    0
H 379.71509951 34.59327874 27.47411770     6     241    0    0    0
C 376.06331037 34.58422021 29.13780169     2     241    245    246    247
H 375.21257392 32.85709164 28.31716239     6     244    0    0    0
H 375.52957329 34.55815858 31.05835681     6     244    0    0    0
C 374.89243256 37.00081163 28.27107908     2     244    248   249   250
H 375.08882155 38.21276124 29.86820002     6     247    0    0    0
H 376.07454052 37.76785317 26.65850660     6     247    0    0    0
C 372.17043545 36.88544842 27.31861058     2     247   251   252   253
H 371.49023226 38.77327336 26.61918289     6    250    0    0    0
H 372.31357088 35.44432041 25.85737498     6    250    0    0    0
C 370.32406682 36.06835535 29.44708360     2    250   254   255   256
H 370.97994938 34.51056285 30.43589905     6    253    0    0    0
H 370.53870239 37.61324907 30.90067691     6    253    0    0    0
C 367.54475128 35.69946579 28.66937220     2    253   257   258   259
H 366.76148746 37.34380459 27.69080724     6    256    0    0    0
H 367.20487491 34.29854975 27.12513649     6    256    0    0    0
C 366.00698463 34.73691552 30.94640740     2    256   260   261   262
H 366.68778435 32.81079818 31.46544975     6    259    0    0    0
H 366.25855487 36.00611105 32.55583307     6    259    0    0    0
C 363.13349856 34.27659863 30.58854176     2    259   263   264   265
H 362.21705201 36.10642639 30.56287349     6    262    0    0    0
H 362.87553946 33.50453241 28.56981594     6    262    0    0    0
C 361.98013531 32.57719471 32.67202684     2    262   266   267   268
H 363.00328147 30.77370914 32.57173036     6    265    0    0    0
H 362.14313974 33.41864287 34.50130886     6    265    0    0    0
C 359.12125015 32.00762018 32.34641591     2    265   269   270   271
H 357.91346100 33.61095696 32.20874731     6    268    0    0    0
H 358.82844744 31.15642565 30.53731305     6    268    0    0    0
C 358.23539065 30.09549804 34.14719681     2    268   272   273   274
H 359.15925267 28.33927841 33.68153126     6    271    0    0    0
H 358.90363250 30.36348400 36.11691810     6    271    0    0    0
C 355.33213596 30.05984284 34.14371766     1    271   275   276   277
H 354.32922230 30.87698461 35.72696159     6    274    0    0    0
H 354.54038535 28.15050630 34.36387357     6    274    0    0    0
H 354.55281462 30.83685457 32.43143630     6    274    0    0    0
H 399.08414646 57.66965212 31.04763582     6     279    0    0    0
C 397.05886398 57.32330617 30.46022855     1     278    280    281    282
H 396.03865910 59.04348316 31.09883258     6     279    0    0    0
H 397.14977013 56.92196173 28.48583447     6     279    0    0    0
C 395.82487608 55.33954062 32.02411568     2     279    283    284    285
H 397.02335555 53.69748811 31.68690797     6     282    0    0    0
H 396.07477806 55.70286331 34.08930964     6     282    0    0    0
C 393.15295047 54.72798508 31.44958728     2     282    286   287   288
H 392.36865931 56.01938202 30.03829870     6     285    0    0    0
H 393.12499498 52.77680230 30.55893144     6     285    0    0    0
C 391.45852589 54.27768284 33.84757225     2     285   289   290   291
H 392.57509904 53.17715022 35.15808795     6    288    0    0    0
H 391.39599827 56.11734212 34.78289344     6    288    0    0    0
C 388.74636272 53.24706051 33.33524469     2    288   292   293   294
H 387.82996380 53.94986160 31.58973090     6    291    0    0    0
H 388.86394187 51.16641691 33.01165425     6    291    0    0    0
C 386.92456343 53.74351241 35.65403153     2    291   295   296   297
H 387.67625516 53.14554539 37.48873524     6    294    0    0    0
H 386.53743061 55.66774693 35.77852576     6    294    0    0    0
C 384.40828204 52.32419473 35.32563793     2    294   298   299   300

   17   -1830.5147084540      3.64E-09 Convergence criterion met
 Total energy in the final basis set = -1828.16838838
 Total job time:  17.00s(wall), 30.65s(cpu)
        *  Thank you very much for using Q-Chem.  Have a nice day.  *

User input: 2 of 2

                  Welcome to Q-Chem
     A Quantum Leap Into The Future Of Chemistry

 Q-Chem 5.4 (devel), Q-Chem, Inc., Pleasanton, CA (2021)

 E. Epifanovsky,  A. T. B. Gilbert,  Xintian Feng,  Joonho Lee,  Yuezhi Mao,
 N. Mardirossian,  P. Pokhilko,  A. White,  M. Wormit,  M. P. Coons,
 A. L. Dempwolff,  Zhengting Gan,  D. Hait,  P. R. Horn,  L. D. Jacobson,
 I. Kaliman,  J. Kussmann,  A. W. Lange,  Ka Un Lao,  D. S. Levine,  Jie Liu,
 S. C. McKenzie,  A. F. Morrison,  K. Nanda,  F. Plasser,  D. R. Rehn,
 M. L. Vidal,  Zhi-Qiang You,  Ying Zhu,  B. Alam,  B. Albrecht,
 A. Aldossary,  E. Alguire,  J. H. Andersen,  D. Barton,  K. Begam,  A. Behn,
 Y. A. Bernard,  E. J. Berquist,  H. Burton,  A. Carreras,  K. Carter-Fenk,
 R. Chakraborty,  A. D. Chien,  K. D. Closser,  V. Cofer-Shabica,
 S. Dasgupta,  Jia Deng,  M. de Wergifosse,  M. Diedenhofen,  Hainam Do,
 S. Ehlert,  Po-Tung Fang,  S. Fatehi,  Qingguo Feng,  T. Friedhoff,
 J. Gayvert,  Qinghui Ge,  G. Gidofalvi,  M. Goldey,  J. Gomes,
 C. Gonzalez-Espinoza,  S. Gulania,  A. Gunina,  M. W. D. Hanson-Heine,
 P. H. P. Harbach,  A. W. Hauser,  M. F. Herbst,  M. Hernandez Vera,
 M. Hodecker,  Z. C. Holden,  S. Houck,  Xunkun Huang,  Kerwin Hui,
 B. C. Huynh,  M. Ivanov,  Hyunjun Ji,  Hanjie Jiang,  B. Kaduk,  S. Kaehler,
 K. Khistyaev,  Jaehoon Kim,  P. Klunzinger,  Z. Koczor-Benda,
 Joong Hoon Koh,  D. Kosenkov,  L. Koulias,  T. Kowalczyk,  C. M. Krauter,
 K. Kue,  A. Kunitsa,  T. Kus,  A. Landau,  K. V. Lawler,  D. Lefrancois,
 S. Lehtola,  Rain Li,  Yi-Pei Li,  Jiashu Liang,  M. Liebenthal,
 Hung-Hsuan Lin,  You-Sheng Lin,  Fenglai Liu,  Kuan-Yu Liu,
 M. Loipersberger,  A. Luenser,  A. Manjanath,  P. Manohar,  E. Mansoor,
 S. F. Manzer,  Shan-Ping Mao,  A. V. Marenich,  T. Markovich,  S. Mason,
 S. A. Maurer,  P. F. McLaughlin,  M. F. S. J. Menger,  J.-M. Mewes,
 S. A. Mewes,  P. Morgante,  J. W. Mullinax,  K. J. Oosterbaan,  G. Paran,
 Alexander C. Paul,  Suranjan K. Paul,  F. Pavosevic,  Zheng Pei,  S. Prager,
 E. I. Proynov,  E. Ramos,  B. Rana,  A. E. Rask,  A. Rettig,  R. M. Richard,
 F. Rob,  E. Rossomme,  T. Scheele,  M. Scheurer,  M. Schneider,
 N. Sergueev,  S. M. Sharada,  W. Skomorowski,  D. W. Small,  C. J. Stein,
 Yu-Chuan Su,  E. J. Sundstrom,  Zhen Tao,  J. Thirman,  T. Tsuchimochi,
 N. M. Tubman,  S. P. Veccham,  O. Vydrov,  J. Wenzel,  J. Witte,  A. Yamada,
 Kun Yao,  S. Yeganeh,  S. R. Yost,  A. Zech,  Igor Ying Zhang,  Xing Zhang,
 Yu Zhang,  D. Zuev,  A. Aspuru-Guzik,  A. T. Bell,  N. A. Besley,
 K. B. Bravaya,  B. R. Brooks,  D. Casanova,  Jeng-Da Chai,  S. Coriani,
 C. J. Cramer,  A. E. DePrince, III,  R. A. DiStasio Jr.,  A. Dreuw,
 B. D. Dunietz,  T. R. Furlani,  W. A. Goddard III,  S. Grimme,
 S. Hammes-Schiffer,  T. Head-Gordon,  W. J. Hehre,  Chao-Ping Hsu,
 T.-C. Jagau,  Yousung Jung,  A. Klamt,  Jing Kong,  D. S. Lambrecht,
 WanZhen Liang,  N. J. Mayhall,  C. W. McCurdy,  J. B. Neaton,
 C. Ochsenfeld,  J. A. Parkhill,  R. Peverati,  V. A. Rassolov,  Yihan Shao,
 L. V. Slipchenko,  T. Stauch,  R. P. Steele,  J. E. Subotnik,
 A. J. W. Thom,  A. Tkatchenko,  D. G. Truhlar,  T. Van Voorhis,
 T. A. Wesolowski,  K. B. Whaley,  H. L. Woodcock III,  P. M. Zimmerman,
 S. Faraji,  P. M. W. Gill,  M. Head-Gordon,  J. M. Herbert,  A. I. Krylov

 Additional authors for Version 5.4.1:
 S. Kotaru,  Shaozhi Li,  Xiangyuan Li,  F. Matz,  A. Molle,  Haisheng Ren,
 Yingli Su,  Hung-Yi Tsai,  C. Utku,  Fang Wang

 Contributors to earlier versions of Q-Chem not listed above:
 R. D. Adamson,  B. Austin,  R. Baer,  J. Baker,  G. J. O. Beran,
 K. Brandhorst,  S. T. Brown,  E. F. C. Byrd,  A. K. Chakraborty,
 G. K. L. Chan,  Chun-Min Chang,  Yunqing Chen,  C.-L. Cheng,
 Siu Hung Chien,  D. M. Chipman,  D. L. Crittenden,  H. Dachsel,
 R. J. Doerksen,  A. D. Dutoi,  R. G. Edgar,  J. Fosso-Tande,
 L. Fusti-Molnar,  D. Ghosh,  A. Ghysels,  A. Golubeva-Zadorozhnaya,
 J. Gonthier,  M. S. Gordon,  S. R. Gwaltney,  G. Hawkins,  J. E. Herr,
 A. Heyden,  S. Hirata,  E. G. Hohenstein,  G. Kedziora,  F. J. Keil,
 C. Kelley,  Jihan Kim,  R. A. King,  R. Z. Khaliullin,  P. P. Korambath,
 W. Kurlancheek,  A. Laurent,  A. M. Lee,  M. S. Lee,  S. V. Levchenko,
 Ching Yeh Lin,  D. Liotard,  E. Livshits,  R. C. Lochan,  I. Lotan,
 L. A. Martinez-Martinez,  P. E. Maslen,  N. Nair,  D. P. O'Neill,
 D. Neuhauser,  E. Neuscamman,  C. M. Oana,  R. Olivares-Amaya,  R. Olson,
 T. M. Perrine,  B. Peters,  P. A. Pieniazek,  A. Prociuk,  Y. M. Rhee,
 J. Ritchie,  M. A. Rohrdanz,  E. Rosta,  N. J. Russ,  H. F. Schaefer III,
 M. W. Schmidt,  N. E. Schultz,  S. Sharma,  N. Shenvi,  C. D. Sherrill,
 A. C. Simmonett,  A. Sodt,  T. Stein,  D. Stuck,  K. S. Thanthiriwatte,
 V. Vanovschi,  L. Vogt,  Tao Wang,  A. Warshel,  M. A. Watson,
 C. F. Williams,  Q. Wu,  X. Xu,  Jun Yang,  W. Zhang,  Yan Zhao

 Please cite Q-Chem as follows:
 Y. Shao et al., Mol. Phys. 113, 184-215 (2015)
 DOI: 10.1080/00268976.2014.952696

 Q-Chem 5.4.1 for Intel X86 EM64T Linux

 Parts of Q-Chem use Armadillo 9.900.5 (Nocturnal Misbehaviour).
 http://arma.sourceforge.net/

 Q-Chem begins on Wed Jun 22 16:41:40 2022

 Host: p09r14n13.grace.hpc.yale.internal
0

     Scratch files written to /home/tl686/scratch60/qchem_dev/scratch/qchem246761//
 Processing $rem in /home/tl686/qchem_dev/qchem/config/preferences:
 Processing $rem in /home/tl686/.qchemrc:
Applying user defined connections for MM calculations
The previous job contains 0 fragments, simply inherited here

 Checking the input file for inconsistencies... 	...done.

--------------------------------------------------------------
User input:
--------------------------------------------------------------

$molecule
READ
$end

$qm_atoms
1:11
$end

$force_field_params
NumAtomTypes 3
AtomType -1   0.0238     3.11   0.2868
AtomType -2   0.07124    3.30   0.6597
AtomType -3  -0.0760     3.09   0.1434
$end

$rem
     JOBTYPE  freq
     METHOD   bp86
     BASIS    def2-msvp
     MAX_SCF_CYCLES   800
     INPUT_BOHR TRUE
     SYM_IGNORE TRUE
     SCF_GUESS     read
     user_connect            true
     qm_mm_interface         ONIOM
     force_field             oplsaa
$end

--------------------------------------------------------------

    4   -1830.5147084540      3.43E-10 Convergence criterion met
 Total energy in the final basis set = -1828.16838838

                    Orbital Energies (a.u.)
 --------------------------------------------------------------

 Alpha MOs
 -- Occupied --
******** -29.6388 -25.5983 -25.5861 -25.5819 -18.8928 -18.8880 -18.8818
-18.8770 -18.8652 -10.0596 -10.0536 -10.0512 -10.0440 -10.0429  -3.3239
 -2.1597  -2.1360  -2.1264  -1.0879  -1.0550  -1.0517  -1.0435  -1.0089
 -0.5781  -0.5296  -0.5228  -0.5175  -0.5143  -0.4606  -0.4543  -0.4487
 -0.4384  -0.4347  -0.4309  -0.4267  -0.4158  -0.4149  -0.4097  -0.4011
 -0.3973  -0.3940  -0.3875  -0.3757  -0.2831  -0.2748  -0.2384  -0.2233

          Ground-State Mulliken Net Atomic Charges

     Atom                 Charge (a.u.)
  ----------------------------------------
      1 Fe                   -0.513534
      2 C                     0.212608
      3 C                     0.191284
      4 C                     0.242125
      5 C                     0.250873
      6 C                     0.211854
      7 O                    -0.116846
      8 O                    -0.071817
      9 O                    -0.113951
     10 O                    -0.168950
     11 O                    -0.123645
  ----------------------------------------
  Sum of atomic charges =     0.000000

                    Cartesian Multipole Moments
 -----------------------------------------------------------------
    Charge (ESU x 10^10)
                -0.0000
    Dipole Moment (Debye)
         X       0.1242050142      Y       0.1313533706      Z       0.6234784687
       Tot       0.6491579118
    Quadrupole Moments (Debye-Ang)
        XX     -19.3386     XY      29.2315     YY     -63.2609
        XZ     130.5527     YZ      18.6010     ZZ     -31.4356
