 Q-Chem 5.4 (devel), Q-Chem, Inc., Pleasanton, CA (2021)
 Q-Chem 5.4.1 for Intel X86 EM64T Linux

User input:
--------------------------------------------------------------
$molecule
0   1
 Fe 1118.04619977 41.44060491 -61.46130665    -1  0   0   0   0
C 1114.58948562 42.07031345 -61.99435795    -2  0   0   0   0
C 1120.98984416 41.40993186 -63.33564835    -2  0   0   0   0
C 1118.70163508 44.82004637 -61.69352440    -2  0   0   0   0
C 1118.53157721 40.84519140 -58.18027483    -2  0   0   0   0
C 1117.56640300 38.22929033 -62.46724650    -2  0   0   0   0
O 1112.43626603 42.47591558 -61.87230953    -3  0   0   0   0
O 1122.84700724 41.52973377 -64.52408314    -3  0   0   0   0
O 1119.33133931 46.96872689 -62.08204605    -3  0   0   0   0
O 1119.26131273 40.31232455 -56.16061540    -3  0   0   0   0
O 1117.30931513 36.41620373 -63.51734546    -3  0   0   0   0
H 1113.09153481 67.35284651 -46.08474782      6     13    0    0    0
C 1112.41469096 66.70722240 -47.87065899     1     12    14    15    16
H 1111.82357882 68.32144036 -49.17644062     6     13    0    0    0
H 1114.21713944 65.87905283 -48.39453715     6     13    0    0    0
C 1110.22211442 64.68240216 -47.61667039     2     13    17    18    19
H 1108.73627540 65.64318449 -46.58568004     6     16    0    0    0
H 1109.39111949 64.33281258 -49.56526161     6     16    0    0    0
C 1110.66182777 61.97925552 -46.60188708     2     16    20   21   22
H 1111.95422203 60.80565660 -47.63906540     6     19    0    0    0
H 1111.13440282 62.05852669 -44.70361134     6     19    0    0    0
C 1108.26548397 60.34775692 -46.28895668     2     19   23   24   25
H 1106.79115803 61.08737590 -44.96562853     6    22    0    0    0
H 1107.13458039 60.57272092 -48.01200249     6    22    0    0    0
C 1109.01746840 57.61799958 -45.56181289     2    22   26   27   28
H 1109.11676897 56.48913174 -47.37296973     6    25    0    0    0
H 1110.75828870 57.56373523 -44.45934749     6    25    0    0    0
C 1106.75077874 56.61178679 -44.13115523     2    25   29   30   31
H 1106.20748333 57.70263018 -42.45975169     6    28    0    0    0
H 1105.10543276 57.01224945 -45.41350927     6    28    0    0    0
C 1107.07990488 53.84114798 -43.72703227     2    28   32   33   34
H 1107.07522098 52.95069010 -45.55902146     6    31    0    0    0
H 1109.01339145 53.41419281 -43.03249665     6    31    0    0    0
C 1104.89787166 52.65820330 -42.14405518     2    31   35   36   37
H 1104.44051540 53.80868623 -40.41430898     6    34    0    0    0
H 1103.14929436 52.80862389 -43.28567291     6    34    0    0    0
C 1105.56395232 49.94685431 -41.47475124     2    34   38   39   40
H 1106.11727628 48.84430399 -43.16735193     6    37    0    0    0
H 1106.99419599 50.06161150 -40.06882770     6    37    0    0    0
C 1103.16490444 48.74262654 -40.31731502     2    37   41   42   43
H 1102.21882623 49.73555062 -38.84566810     6    40    0    0    0
H 1101.66907051 48.63246974 -41.76736137     6    40    0    0    0
C 1103.94611453 46.23011125 -39.20850906     2    40   44   45   46
H 1105.32549044 45.25824466 -40.42751990     6    43    0    0    0
H 1105.02301462 46.52920862 -37.49982028     6    43    0    0    0
C 1101.84668419 44.46048471 -38.59288513     1    43   47   48   49
H 1100.41181047 45.24854142 -37.50235837     6    46    0    0    0
H 1102.44727283 42.88379146 -37.44487475     6    46    0    0    0
H 1100.95484483 43.84984520 -40.31239045     6    46    0    0    0
H 1112.22612207 36.55018959 -54.73362002     6     51    0    0    0
C 1111.74698989 38.48036351 -55.26409411     1     50    52    53    54
H 1113.45633233 39.67696175 -54.94025502     6     51    0    0    0
H 1111.72826000 38.40787927 -57.32758768     6     51    0    0    0
C 1109.48855057 39.69578917 -54.12361539     2     51    55    56    57
H 1109.12407593 41.19415388 -55.39896244     6     54    0    0    0
H 1107.90094844 38.48625917 -54.21392367     6     54    0    0    0
C 1109.88843673 40.21837129 -51.31393014     2     54    58   59   60
H 1111.57162166 39.39990588 -50.66370082     6     57    0    0    0
H 1110.06203239 42.25642524 -51.05023208     6     57    0    0    0
C 1108.06006236 38.69477374 -49.64029892     2     57   61   62   63
H 1106.08060371 38.98555622 -50.45581315     6    60    0    0    0
H 1108.44682633 36.74685012 -49.94304702     6    60    0    0    0
C 1108.16649664 38.99901044 -46.76188505     2    60   64   65   66
H 1110.09012456 38.79055675 -46.04060343     6    63    0    0    0
H 1108.06854713 41.04053436 -46.35968366     6    63    0    0    0
C 1106.28832886 37.51647829 -45.30492408     2    63   67   68   69
H 1106.19357536 38.00126318 -43.40141613     6    66    0    0    0
H 1104.47217148 37.64736214 -46.18817841     6    66    0    0    0
C 1106.93690208 34.74120960 -45.28015877     2    66   70   71   72
H 1106.63617874 34.24056333 -47.30720480     6    69    0    0    0
H 1108.94252185 34.41146019 -44.66640052     6    69    0    0    0
C 1105.18747909 33.20033976 -43.48638050     2    69   73   74   75
H 1105.44419520 33.81860794 -41.56191622     6    72    0    0    0
H 1103.20303587 33.70861204 -43.70596567     6    72    0    0    0
C 1105.74745471 30.39320646 -44.05216507     2    72   76   77   78
H 1105.38767266 30.24862934 -46.08088524     6    75    0    0    0
H 1107.81015612 30.05715738 -43.52075566     6    75    0    0    0
C 1103.78000082 28.63799196 -42.50070193     2    75   79   80   81
H 1104.06852247 29.14305390 -40.56220819     6    78    0    0    0
H 1101.86618988 29.10713284 -43.04732566     6    78    0    0    0
C 1104.42074843 25.85991165 -42.97061856     2    78   82   83   84
H 1104.07150163 25.23815975 -44.90783017     6    81    0    0    0
H 1106.44931754 25.28984113 -42.95158739     6    81    0    0    0
C 1103.08152912 24.35562991 -40.77528825     1    81   85   86   87
H 1103.63036476 22.48173328 -40.79161625     6    84    0    0    0
H 1101.00969357 24.55638122 -40.75725360     6    84    0    0    0
H 1103.80919800 25.10772868 -39.02849938     6    84    0    0    0
H 1125.90254676 64.89562748 -32.84065211     6     89    0    0    0
C 1124.88885863 63.35106335 -33.83079010     1     88    90    91    92
H 1123.63079334 64.07225652 -35.21767312     6     89    0    0    0
H 1126.32345393 62.27348376 -34.71940505     6     89    0    0    0
C 1123.55248885 62.00436131 -31.60875083     2     89    93    94    95
H 1125.01892240 62.01915267 -30.12087209     6     92    0    0    0
H 1122.03188543 63.14551037 -30.86060344     6     92    0    0    0
C 1122.77000396 59.42697639 -32.21677308     2     92    96   97   98
H 1121.78708519 59.24588066 -33.92897605     6     95    0    0    0
H 1124.43627424 58.32555975 -32.41748049     6     95    0    0    0
C 1121.06993541 58.14374415 -30.19273681     2     95   99   100   101
H 1121.86432612 58.17492819 -28.34296392     6    98    0    0    0
H 1119.31048466 59.18642835 -30.07304755     6    98    0    0    0
C 1120.63480797 55.34352766 -30.68208955     2    98   102   103   104
H 1120.49682529 55.14655433 -32.75018254     6    101    0    0    0
H 1122.24718803 54.19159609 -29.89305223     6    101    0    0    0
C 1117.99317801 54.39218547 -29.68946590     2    101   105   106   107
H 1117.59514279 55.14502513 -27.85135236     6    104    0    0    0
H 1116.52269979 55.31297002 -30.74438397     6    104    0    0    0
C 1117.68396018 51.62489242 -30.08740213     2    104   108   109   110
H 1117.93329541 51.16774457 -31.97352697     6    107    0    0    0
H 1119.15891526 50.75372411 -28.91436874     6    107    0    0    0
C 1114.91493370 50.87052327 -29.41577462     2    107   111   112   113
H 1114.61024718 51.51494529 -27.41651082     6    110    0    0    0
H 1113.49559562 51.99256754 -30.37648192     6    110    0    0    0
C 1114.13243917 48.02628242 -29.49530566     2    110   114   115   116
H 1114.38390133 47.26675461 -31.36084501     6    113    0    0    0
H 1115.34562309 46.94473064 -28.27657400     6    113    0    0    0
C 1111.39349220 47.47977179 -28.44445602     2    113   117   118   119
H 1111.22332283 48.09330601 -26.58079046     6    116    0    0    0
H 1109.97609795 48.42293410 -29.56436216     6    116    0    0    0
C 1110.52116071 44.72041529 -28.78550200     2    116   120   121   122
H 1108.64325209 44.58549625 -28.15901400     6    119    0    0    0
H 1110.65850011 44.01907805 -30.62850099     6    119    0    0    0
C 1112.03321171 42.88321509 -27.14033904     1    119   123   124   125
H 1111.11890728 40.97247388 -27.72463992     6    122    0    0    0
H 1111.42222171 43.15226284 -25.15900179     6    122    0    0    0
H 1114.07411592 42.68033243 -27.27781270     6    122    0    0    0
H 1145.48332388 47.34836308 -41.77583947     6     127    0    0    0
C 1143.69629759 47.78826365 -42.69442690     1     126    128    129    130
H 1142.52995777 46.04864856 -42.29436584     6     127    0    0    0
H 1142.87871269 49.28958592 -41.56975653     6     127    0    0    0
C 1143.79649051 48.39162127 -45.56646173     2     127    131    132    133
H 1144.95077602 50.09550697 -45.64391747     6     130    0    0    0
H 1144.66301541 46.89800215 -46.61210104     6     130    0    0    0
C 1141.04699986 48.71289163 -46.51430917     2     130    134   135   136
H 1140.01799164 47.01569172 -46.06811059     6     133    0    0    0
H 1140.19645223 50.26884039 -45.41219822     6     133    0    0    0
C 1140.90577801 49.44084525 -49.30754245     2     133   137   138   139
H 1142.05663658 51.05404357 -49.76164821     6    136    0    0    0
H 1141.48335923 47.95616640 -50.47778084     6    136    0    0    0
C 1138.13599435 49.87744754 -50.12023881     2    136   140   141   142
H 1137.26908538 48.11845790 -50.16072829     6    139    0    0    0
H 1137.01949191 51.21270255 -48.92145326     6    139    0    0    0
C 1138.05928991 50.94238267 -52.88947746     2    139   143   144   145
H 1138.41942862 53.12773792 -52.86426684     6    142    0    0    0
H 1139.36109332 49.86400677 -54.25179388     6    142    0    0    0
C 1135.25898065 50.69167206 -53.87198381     2    142   146   147   148
H 1134.64283262 48.72638011 -53.76360178     6    145    0    0    0
H 1133.91322131 51.28637067 -52.48346298     6    145    0    0    0
C 1134.77332572 51.82551570 -56.60380522     2    145   149   150   151
H 1135.28218497 53.80184436 -56.66772680     6    148    0    0    0
H 1136.26033881 51.02072589 -57.69360495     6    148    0    0    0
C 1132.18527073 51.35134659 -57.83292346     2    148   152   153   154
H 1131.79479836 49.35461015 -57.50840592     6    151    0    0    0
H 1130.66028553 52.56306059 -57.28680040     6    151    0    0    0
C 1132.41927093 51.74795506 -60.83687696     2    151   155   156   157
H 1132.93847034 53.71411829 -60.92593846     6    154    0    0    0
H 1134.03636114 50.64730609 -61.48523746     6    154    0    0    0
C 1129.93670422 51.58153569 -62.22398483     2    154   158   159   160
H 1128.89819290 49.91840722 -61.59940025     6    157    0    0    0
H 1128.82045258 53.25794606 -61.71932714     6    157    0    0    0
C 1130.31248316 51.34265502 -65.04827670     1    157   161   162   163
H 1132.20846451 50.70776143 -65.52787444     6    160    0    0    0
H 1130.02719182 53.17284518 -66.01350039     6    160    0    0    0
H 1129.12259634 49.92346159 -66.07327153     6    160    0    0    0
H 1134.59140347 32.32716992 -20.90534151     6     165    0    0    0
C 1134.90618927 34.01957096 -22.03126931     1     164    166    167    168
H 1133.16747273 34.98033307 -22.32098072     6     165    0    0    0
H 1136.00855215 35.11904250 -20.59124643     6     165    0    0    0
C 1136.41663021 33.27465319 -24.43000890     2     165    169    170    171
H 1138.08372906 32.21978831 -23.73629947     6     168    0    0    0
H 1135.47085439 32.02994096 -25.82742986     6     168    0    0    0
C 1137.38955722 35.42944114 -26.00739379     2     168    172   173   174
H 1135.95650557 36.38348265 -26.93228650     6     171    0    0    0
H 1138.17232230 36.70553446 -24.51866138     6     171    0    0    0
C 1139.57174321 34.62724213 -27.89353811     2     171   175   176   177
H 1140.76612745 33.87232458 -26.66771282     6    174    0    0    0
H 1139.12851352 32.90134009 -29.14597719     6    174    0    0    0
C 1140.76809887 36.77725816 -29.59472842     2    174   178   179   180
H 1139.19335569 38.09617986 -30.14770163     6    177    0    0    0
H 1142.22410243 37.64978781 -28.34903646     6    177    0    0    0
C 1141.89956999 35.80369505 -32.09961948     2    177   181   182   183
H 1140.57106277 34.44380848 -32.74372072     6    180    0    0    0
H 1142.17131080 37.27295630 -33.63239716     6    180    0    0    0
C 1144.40480710 34.37738361 -31.90399421     2    180   184   185   186
H 1145.80682516 35.49487757 -30.84004702     6    183    0    0    0
H 1144.10828980 32.66691441 -30.78104957     6    183    0    0    0
C 1145.52283958 33.44084301 -34.43824409     2    183   187   188   189
H 1144.01973094 32.21458184 -35.07148295     6    186    0    0    0
H 1145.62502882 35.03899490 -35.94246343     6    186    0    0    0
C 1147.96465153 32.08055329 -34.41890546     2    186   190   191   192
H 1149.29541525 33.17978108 -33.23799617     6    189    0    0    0
H 1147.85234376 30.20745141 -33.67608902     6    189    0    0    0
C 1149.11052929 31.70066912 -36.98401110     2    189   193   194   195
H 1147.44432147 31.17174045 -38.22554889     6    192    0    0    0
H 1149.78784443 33.52387038 -37.54224616     6    192    0    0    0
C 1151.56038229 29.86773187 -37.29465448     2    192   196   197   198
H 1152.85281543 30.07771195 -35.74434213     6    195    0    0    0
H 1150.72184531 28.01458536 -37.36181698     6    195    0    0    0
C 1152.89089205 30.16361028 -39.75917930     1    195   199   200   201
H 1154.61282256 29.12631761 -39.54742981     6    198    0    0    0
H 1153.30876953 32.26746267 -40.14414643     6    198    0    0    0
H 1151.84366522 29.53976106 -41.51006775     6    198    0    0    0
H 1132.62367215 26.29322044 -33.97454661     6     203    0    0    0
C 1134.58199810 26.76580479 -34.17818773     1     202    204    205    206
H 1134.66597487 27.12199073 -36.23490107     6     203    0    0    0
H 1135.10322894 28.37837817 -33.03359389     6     203    0    0    0
C 1135.90492880 24.39740282 -33.19310437     2     203    207    208    209
H 1138.02744648 24.76307848 -33.20465843     6     206    0    0    0
H 1135.33290953 24.07556241 -31.21204362     6     206    0    0    0
C 1135.13178377 21.79128967 -34.38997216     2     206    210   211   212
H 1136.09917420 20.22076146 -33.38359575     6     209    0    0    0
H 1133.09992436 21.68334157 -34.12739477     6     209    0    0    0
C 1135.76119105 21.68511155 -37.28170077     2     209   213   214   215
H 1135.36212989 23.34003448 -38.37254581     6    212    0    0    0
H 1137.80247588 21.71662379 -37.15683043     6    212    0    0    0
C 1135.16612046 19.12305198 -38.48840973     2    212   216   217   218
H 1136.34298976 17.75286659 -37.53132121     6    215    0    0    0
H 1133.25071530 18.51672774 -38.25136969     6    215    0    0    0
C 1135.97816873 18.91364465 -41.35260184     2    215   219   220   221
H 1135.01266112 20.43858678 -42.27241859     6    218    0    0    0
H 1137.97759139 19.03362879 -41.39762215     6    218    0    0    0
C 1135.12863007 16.18735674 -42.36261969     2    218   222   223   224
H 1135.99503239 14.61833049 -41.17005329     6    221    0    0    0
H 1133.06810540 16.14420098 -42.31591058     6    221    0    0    0
C 1136.08020909 15.76828298 -45.13563262     2    221   225   226   227
H 1135.61175573 17.30298082 -46.41275021     6    224    0    0    0
H 1138.05231179 15.47924920 -44.69408571     6    224    0    0    0
C 1135.10081269 13.23028620 -46.20921847     2    224   228   229   230
H 1135.30707344 11.64546641 -44.90576478     6    227    0    0    0
H 1133.05033473 13.32520325 -46.32404981     6    227    0    0    0
C 1136.52886742 12.46765894 -48.70949659     2    227   231   232   233
H 1136.77907438 14.22313225 -49.81301231     6    230    0    0    0
H 1138.38381111 11.53497510 -48.19340987     6    230    0    0    0
C 1135.12399825 10.59816748 -50.42591173     2    230   234   235   236
H 1134.79976124 8.82166929 -49.35773892     6    233    0    0    0
H 1133.25809659 11.42723571 -50.89249289     6    233    0    0    0
C 1136.62139994 10.16904512 -52.80016838     1    233   237   238   239
H 1138.63529836 9.51103074 -52.40443999     6    236    0    0    0
H 1136.88129372 11.88712145 -53.86138852     6    236    0    0    0
H 1135.58649598 8.84119861 -53.99491474     6    236    0    0    0
H 1110.56692809 29.04563541 -36.06790671     6     241    0    0    0
C 1108.89746651 29.78911347 -36.99515790     1     240    242    243    244
H 1109.28014274 31.48235956 -38.09649966     6     241    0    0    0
H 1107.81432512 28.38733134 -38.02038437     6     241    0    0    0
C 1107.37413514 30.72930852 -34.72373026     2     241    245    246    247
H 1108.83146050 31.41977877 -33.43744347     6     244    0    0    0
H 1106.30796924 32.41805214 -35.10552449     6     244    0    0    0
C 1105.49690739 28.66306058 -33.77766913     2     244    248   249   250
H 1104.18008868 28.20600389 -35.35549457     6     247    0    0    0
H 1106.33716896 26.73573849 -33.38590510     6     247    0    0    0
C 1104.12773329 29.36045433 -31.36940991     2     247   251   252   253
H 1105.50922021 29.78485667 -29.96558053     6    250    0    0    0
H 1103.13158085 31.25821530 -31.60379961     6    250    0    0    0
C 1102.31115648 27.43410213 -30.06341243     2    250   254   255   256
H 1103.19136105 25.82933455 -29.12283138     6    253    0    0    0
H 1101.45191749 28.57357181 -28.45889157     6    253    0    0    0
C 1100.07450242 26.47917165 -31.78803983     2    253   257   258   259
H 1098.46524289 25.88035871 -30.60953045     6    256    0    0    0
H 1099.34591359 27.85052308 -33.02416667     6    256    0    0    0
C 1100.85390605 24.36989272 -33.58134156     2    256   260   261   262
H 1102.52447581 24.75855611 -34.76078960     6    259    0    0    0
H 1101.58703691 22.83506917 -32.46035568     6    259    0    0    0
C 1098.69787154 23.24225295 -35.01959423     2    259   263   264   265
H 1097.06530469 23.19240438 -33.77900157     6    262    0    0    0
H 1097.87383384 24.45794392 -36.40689099     6    262    0    0    0
C 1099.26997939 20.62010497 -36.11027397     2    262   266   267   268
H 1100.85480313 20.78460344 -37.44794955     6    265    0    0    0
H 1099.83377072 19.31371045 -34.61330898     6    265    0    0    0
C 1096.97127091 19.46504304 -37.31555490     2    265   269   270   271
H 1095.48933924 19.33080971 -35.83784611     6    268    0    0    0
H 1096.25400437 20.58997984 -38.98810960     6    268    0    0    0
C 1097.76176394 16.74283016 -38.29076928     2    268   272   273   274
H 1099.20449104 17.05098889 -39.80574903     6    271    0    0    0
H 1098.91408124 15.93823938 -36.75631315     6    271    0    0    0
C 1095.49187618 15.16180949 -39.05271815     1    271   275   276   277
H 1094.28642878 14.82188195 -37.41956162     6    274    0    0    0
H 1096.08317222 13.40282989 -39.88630503     6    274    0    0    0
H 1094.31263449 16.22379443 -40.33925792     6    274    0    0    0
H 1128.55864053 45.59333679 -28.93156138     6     279    0    0    0
C 1128.63060012 43.62525277 -28.25789370     1     278    280    281    282
H 1130.59005219 42.92422685 -28.22608081     6     279    0    0    0
H 1127.68365995 43.60374503 -26.41477881     6     279    0    0    0
C 1127.21654459 41.79349767 -29.97333272     2     279    283    284    285
H 1125.18833490 42.39100311 -30.33330226     6     282    0    0    0
H 1128.12122274 41.77299074 -31.87898978     6     282    0    0    0
C 1126.90579351 39.00107652 -28.90393532     2     282    286   287   288
H 1128.65692968 38.23538936 -28.08174317     6     285    0    0    0
H 1125.61388220 39.15661292 -27.31934667     6     285    0    0    0
C 1125.59724601 37.27710924 -30.87941578     2     285   289   290   291
H 1124.08002386 38.21450511 -31.90247351     6    288    0    0    0
H 1126.90036803 36.72204173 -32.29418299     6    288    0    0    0
C 1124.37539044 34.86509549 -29.64744306     2    288   292   293   294
H 1125.61818186 34.15511483 -28.21031261     6    291    0    0    0
H 1122.49392740 35.29021295 -28.88839708     6    291    0    0    0
C 1123.78846146 32.88347663 -31.68777868     2    291   295   296   297
H 1122.51211049 33.81018433 -33.02001118     6    294    0    0    0
H 1125.45739529 32.51117256 -32.68123648     6    294    0    0    0
C 1122.86479985 30.37419511 -30.62839162     2    294   298   299   300

   18   -1830.5110296848      4.68E-09 Convergence criterion met
 Total energy in the final basis set = -1828.24805545
 Total job time:  17.46s(wall), 31.21s(cpu)
        *  Thank you very much for using Q-Chem.  Have a nice day.  *

User input: 2 of 2

                  Welcome to Q-Chem
     A Quantum Leap Into The Future Of Chemistry

 Q-Chem 5.4 (devel), Q-Chem, Inc., Pleasanton, CA (2021)

 E. Epifanovsky,  A. T. B. Gilbert,  Xintian Feng,  Joonho Lee,  Yuezhi Mao,
 N. Mardirossian,  P. Pokhilko,  A. White,  M. Wormit,  M. P. Coons,
 A. L. Dempwolff,  Zhengting Gan,  D. Hait,  P. R. Horn,  L. D. Jacobson,
 I. Kaliman,  J. Kussmann,  A. W. Lange,  Ka Un Lao,  D. S. Levine,  Jie Liu,
 S. C. McKenzie,  A. F. Morrison,  K. Nanda,  F. Plasser,  D. R. Rehn,
 M. L. Vidal,  Zhi-Qiang You,  Ying Zhu,  B. Alam,  B. Albrecht,
 A. Aldossary,  E. Alguire,  J. H. Andersen,  D. Barton,  K. Begam,  A. Behn,
 Y. A. Bernard,  E. J. Berquist,  H. Burton,  A. Carreras,  K. Carter-Fenk,
 R. Chakraborty,  A. D. Chien,  K. D. Closser,  V. Cofer-Shabica,
 S. Dasgupta,  Jia Deng,  M. de Wergifosse,  M. Diedenhofen,  Hainam Do,
 S. Ehlert,  Po-Tung Fang,  S. Fatehi,  Qingguo Feng,  T. Friedhoff,
 J. Gayvert,  Qinghui Ge,  G. Gidofalvi,  M. Goldey,  J. Gomes,
 C. Gonzalez-Espinoza,  S. Gulania,  A. Gunina,  M. W. D. Hanson-Heine,
 P. H. P. Harbach,  A. W. Hauser,  M. F. Herbst,  M. Hernandez Vera,
 M. Hodecker,  Z. C. Holden,  S. Houck,  Xunkun Huang,  Kerwin Hui,
 B. C. Huynh,  M. Ivanov,  Hyunjun Ji,  Hanjie Jiang,  B. Kaduk,  S. Kaehler,
 K. Khistyaev,  Jaehoon Kim,  P. Klunzinger,  Z. Koczor-Benda,
 Joong Hoon Koh,  D. Kosenkov,  L. Koulias,  T. Kowalczyk,  C. M. Krauter,
 K. Kue,  A. Kunitsa,  T. Kus,  A. Landau,  K. V. Lawler,  D. Lefrancois,
 S. Lehtola,  Rain Li,  Yi-Pei Li,  Jiashu Liang,  M. Liebenthal,
 Hung-Hsuan Lin,  You-Sheng Lin,  Fenglai Liu,  Kuan-Yu Liu,
 M. Loipersberger,  A. Luenser,  A. Manjanath,  P. Manohar,  E. Mansoor,
 S. F. Manzer,  Shan-Ping Mao,  A. V. Marenich,  T. Markovich,  S. Mason,
 S. A. Maurer,  P. F. McLaughlin,  M. F. S. J. Menger,  J.-M. Mewes,
 S. A. Mewes,  P. Morgante,  J. W. Mullinax,  K. J. Oosterbaan,  G. Paran,
 Alexander C. Paul,  Suranjan K. Paul,  F. Pavosevic,  Zheng Pei,  S. Prager,
 E. I. Proynov,  E. Ramos,  B. Rana,  A. E. Rask,  A. Rettig,  R. M. Richard,
 F. Rob,  E. Rossomme,  T. Scheele,  M. Scheurer,  M. Schneider,
 N. Sergueev,  S. M. Sharada,  W. Skomorowski,  D. W. Small,  C. J. Stein,
 Yu-Chuan Su,  E. J. Sundstrom,  Zhen Tao,  J. Thirman,  T. Tsuchimochi,
 N. M. Tubman,  S. P. Veccham,  O. Vydrov,  J. Wenzel,  J. Witte,  A. Yamada,
 Kun Yao,  S. Yeganeh,  S. R. Yost,  A. Zech,  Igor Ying Zhang,  Xing Zhang,
 Yu Zhang,  D. Zuev,  A. Aspuru-Guzik,  A. T. Bell,  N. A. Besley,
 K. B. Bravaya,  B. R. Brooks,  D. Casanova,  Jeng-Da Chai,  S. Coriani,
 C. J. Cramer,  A. E. DePrince, III,  R. A. DiStasio Jr.,  A. Dreuw,
 B. D. Dunietz,  T. R. Furlani,  W. A. Goddard III,  S. Grimme,
 S. Hammes-Schiffer,  T. Head-Gordon,  W. J. Hehre,  Chao-Ping Hsu,
 T.-C. Jagau,  Yousung Jung,  A. Klamt,  Jing Kong,  D. S. Lambrecht,
 WanZhen Liang,  N. J. Mayhall,  C. W. McCurdy,  J. B. Neaton,
 C. Ochsenfeld,  J. A. Parkhill,  R. Peverati,  V. A. Rassolov,  Yihan Shao,
 L. V. Slipchenko,  T. Stauch,  R. P. Steele,  J. E. Subotnik,
 A. J. W. Thom,  A. Tkatchenko,  D. G. Truhlar,  T. Van Voorhis,
 T. A. Wesolowski,  K. B. Whaley,  H. L. Woodcock III,  P. M. Zimmerman,
 S. Faraji,  P. M. W. Gill,  M. Head-Gordon,  J. M. Herbert,  A. I. Krylov

 Additional authors for Version 5.4.1:
 S. Kotaru,  Shaozhi Li,  Xiangyuan Li,  F. Matz,  A. Molle,  Haisheng Ren,
 Yingli Su,  Hung-Yi Tsai,  C. Utku,  Fang Wang

 Contributors to earlier versions of Q-Chem not listed above:
 R. D. Adamson,  B. Austin,  R. Baer,  J. Baker,  G. J. O. Beran,
 K. Brandhorst,  S. T. Brown,  E. F. C. Byrd,  A. K. Chakraborty,
 G. K. L. Chan,  Chun-Min Chang,  Yunqing Chen,  C.-L. Cheng,
 Siu Hung Chien,  D. M. Chipman,  D. L. Crittenden,  H. Dachsel,
 R. J. Doerksen,  A. D. Dutoi,  R. G. Edgar,  J. Fosso-Tande,
 L. Fusti-Molnar,  D. Ghosh,  A. Ghysels,  A. Golubeva-Zadorozhnaya,
 J. Gonthier,  M. S. Gordon,  S. R. Gwaltney,  G. Hawkins,  J. E. Herr,
 A. Heyden,  S. Hirata,  E. G. Hohenstein,  G. Kedziora,  F. J. Keil,
 C. Kelley,  Jihan Kim,  R. A. King,  R. Z. Khaliullin,  P. P. Korambath,
 W. Kurlancheek,  A. Laurent,  A. M. Lee,  M. S. Lee,  S. V. Levchenko,
 Ching Yeh Lin,  D. Liotard,  E. Livshits,  R. C. Lochan,  I. Lotan,
 L. A. Martinez-Martinez,  P. E. Maslen,  N. Nair,  D. P. O'Neill,
 D. Neuhauser,  E. Neuscamman,  C. M. Oana,  R. Olivares-Amaya,  R. Olson,
 T. M. Perrine,  B. Peters,  P. A. Pieniazek,  A. Prociuk,  Y. M. Rhee,
 J. Ritchie,  M. A. Rohrdanz,  E. Rosta,  N. J. Russ,  H. F. Schaefer III,
 M. W. Schmidt,  N. E. Schultz,  S. Sharma,  N. Shenvi,  C. D. Sherrill,
 A. C. Simmonett,  A. Sodt,  T. Stein,  D. Stuck,  K. S. Thanthiriwatte,
 V. Vanovschi,  L. Vogt,  Tao Wang,  A. Warshel,  M. A. Watson,
 C. F. Williams,  Q. Wu,  X. Xu,  Jun Yang,  W. Zhang,  Yan Zhao

 Please cite Q-Chem as follows:
 Y. Shao et al., Mol. Phys. 113, 184-215 (2015)
 DOI: 10.1080/00268976.2014.952696

 Q-Chem 5.4.1 for Intel X86 EM64T Linux

 Parts of Q-Chem use Armadillo 9.900.5 (Nocturnal Misbehaviour).
 http://arma.sourceforge.net/

 Q-Chem begins on Wed Jun  1 23:30:40 2022

 Host: p09r14n13.grace.hpc.yale.internal
0

     Scratch files written to /home/tl686/scratch60/qchem_dev/scratch/qchem244188//
 Processing $rem in /home/tl686/qchem_dev/qchem/config/preferences:
 Processing $rem in /home/tl686/.qchemrc:
Applying user defined connections for MM calculations
The previous job contains 0 fragments, simply inherited here

 Checking the input file for inconsistencies... 	...done.

--------------------------------------------------------------
User input:
--------------------------------------------------------------

$molecule
READ
$end

$qm_atoms
1:11
$end

$force_field_params
NumAtomTypes 3
AtomType -1   0.0238     3.11   0.2868
AtomType -2   0.07124    3.30   0.6597
AtomType -3  -0.0760     3.09   0.1434
$end

$rem
     JOBTYPE  freq
     METHOD   bp86
     BASIS    def2-msvp
     MAX_SCF_CYCLES   800
     INPUT_BOHR TRUE
     SYM_IGNORE TRUE
     SCF_GUESS     read
     user_connect            true
     qm_mm_interface         ONIOM
     force_field             oplsaa
$end

--------------------------------------------------------------

    2   -1830.5110296858      7.06E-09 Convergence criterion met
 Total energy in the final basis set = -1828.24805545

                    Orbital Energies (a.u.)
 --------------------------------------------------------------

 Alpha MOs
 -- Occupied --
******** -29.6333 -25.5932 -25.5825 -25.5748 -18.8902 -18.8854 -18.8814
-18.8810 -18.8653 -10.0574 -10.0503 -10.0500 -10.0489 -10.0308  -3.3170
 -2.1525  -2.1313  -2.1168  -1.0897  -1.0579  -1.0512  -1.0344  -1.0332
 -0.5725  -0.5284  -0.5225  -0.5136  -0.5095  -0.4581  -0.4553  -0.4477
 -0.4394  -0.4314  -0.4258  -0.4202  -0.4167  -0.4102  -0.4084  -0.4058
 -0.4008  -0.3954  -0.3885  -0.3818  -0.2761  -0.2626  -0.2335  -0.2177

          Ground-State Mulliken Net Atomic Charges

     Atom                 Charge (a.u.)
  ----------------------------------------
      1 Fe                   -0.482844
      2 C                     0.212384
      3 C                     0.199667
      4 C                     0.207441
      5 C                     0.235670
      6 C                     0.183414
      7 O                    -0.102782
      8 O                    -0.112786
      9 O                    -0.143352
     10 O                    -0.129661
     11 O                    -0.067151
  ----------------------------------------
  Sum of atomic charges =     0.000000

                    Cartesian Multipole Moments
 -----------------------------------------------------------------
    Charge (ESU x 10^10)
                -0.0000
    Dipole Moment (Debye)
         X      -0.4977431541      Y      -0.5218745700      Z      -0.4223990028
       Tot       0.8357764245
    Quadrupole Moments (Debye-Ang)
        XX    -658.6973     XY    -319.9150     YY     -91.4987
        XZ    -233.5477     YZ       8.3954     ZZ     -42.8337
