 Q-Chem 5.4 (devel), Q-Chem, Inc., Pleasanton, CA (2021)
 Q-Chem 5.4.1 for Intel X86 EM64T Linux

User input:
--------------------------------------------------------------
$molecule
0   1
 Fe 381.34629435 38.87572955 59.79432615    -1  0   0   0   0
C 379.73546201 35.88734528 59.12920796    -2  0   0   0   0
C 381.97490682 42.26619288 60.48536262    -2  0   0   0   0
C 384.57746219 37.52832384 59.58893525    -2  0   0   0   0
C 380.48503674 39.84221307 56.58831683    -2  0   0   0   0
C 379.73564065 38.87402476 62.63613844    -2  0   0   0   0
O 378.24435323 34.26368649 59.00162455    -3  0   0   0   0
O 382.48718096 44.26528321 60.94398858    -3  0   0   0   0
O 386.66400943 36.61596571 59.74192708    -3  0   0   0   0
O 380.21184863 40.22582316 54.36568094    -3  0   0   0   0
O 378.71381025 39.02791383 64.56072491    -3  0   0   0   0
H 393.04217163 11.91795050 51.75147564      6     13    0    0    0
C 391.58825424 13.41650838 51.64151284     1     12    14    15    16
H 389.88723848 12.32510406 51.86782822     6     13    0    0    0
H 391.66950006 14.88225521 53.23504028     6     13    0    0    0
C 391.57804250 14.96018050 49.16639510     2     13    17    18    19
H 393.51064004 15.78204614 48.79373970     6     16    0    0    0
H 391.39071741 13.54878723 47.72860554     6     16    0    0    0
C 389.47843441 16.95707495 48.82575302     2     16    20   21   22
H 387.62583055 15.99735224 48.79021506     6     19    0    0    0
H 389.66830980 18.20549366 50.33092561     6     19    0    0    0
C 389.92083621 18.25162832 46.18295516     2     19   23   24   25
H 391.68367171 19.20600006 45.91860677     6    22    0    0    0
H 389.98585879 16.93110317 44.71397239     6    22    0    0    0
C 388.01483723 20.39641704 45.69840374     2    22   26   27   28
H 386.12768525 19.57521325 46.02996307     6    25    0    0    0
H 387.95404632 21.63607354 47.38599334     6    25    0    0    0
C 387.90839589 22.00242973 43.37905861     2    25   29   30   31
H 389.50609685 23.27416927 43.30191662     6    28    0    0    0
H 387.89076529 20.87166578 41.62775929     6    28    0    0    0
C 385.57744967 23.76345545 43.51033833     2    28   32   33   34
H 383.93343217 22.80113961 44.42043385     6    31    0    0    0
H 386.19793956 25.23206878 44.86411978     6    31    0    0    0
C 384.79354245 24.69906929 40.99097106     2    31   35   36   37
H 386.43826130 25.39068302 39.90985480     6    34    0    0    0
H 384.18187264 23.09679612 39.85777208     6    34    0    0    0
C 382.50532294 26.74537139 41.47999532     2    34   38   39   40
H 381.08851507 25.91888511 42.41262175     6    37    0    0    0
H 383.23957860 28.16956846 42.72314992     6    37    0    0    0
C 381.20906873 28.11643277 39.21809796     2    37   41   42   43
H 382.35577926 28.72753037 37.69084786     6    40    0    0    0
H 380.02295328 26.69170249 38.21281283     6    40    0    0    0
C 379.59670694 30.40942360 40.20315610     2    40   44   45   46
H 377.96312224 29.83124143 41.26267439     6    43    0    0    0
H 380.96335334 31.82445900 41.00968287     6    43    0    0    0
C 378.18857040 31.86321164 38.03650949     1    43   47   48   49
H 379.53810536 32.51190131 36.60026945     6    46    0    0    0
H 377.50874759 33.53058197 39.07505474     6    46    0    0    0
H 376.56981128 30.82723246 37.42492737     6    46    0    0    0
H 376.36933491 31.41730493 54.09440709     6     51    0    0    0
C 375.20216716 32.78981674 53.01175344     1     50    52    53    54
H 374.60651050 31.65779097 51.41960303     6     51    0    0    0
H 373.77035940 33.38101699 54.40945820     6     51    0    0    0
C 376.64605489 35.05979348 52.12946490     2     51    55    56    57
H 377.74308858 35.77648534 53.63523169     6     54    0    0    0
H 378.07993629 34.56964571 50.84029284     6     54    0    0    0
C 375.18947619 37.15056080 50.80451799     2     54    58   59   60
H 373.60115784 37.67540947 52.02998965     6     57    0    0    0
H 376.58773212 38.54712107 50.51527928     6     57    0    0    0
C 374.06454565 36.37790977 48.24439069     2     57   61   62   63
H 373.17400142 34.51048589 48.37025138     6    60    0    0    0
H 372.56433435 37.66446402 47.87711673     6    60    0    0    0
C 376.01074623 36.51809125 45.96798288     2    60   64   65   66
H 376.90265195 38.29930627 46.13002475     6    63    0    0    0
H 377.46156904 35.07062755 46.31606663     6    63    0    0    0
C 374.86973374 36.08798269 43.34120246     2    63   67   68   69
H 376.27367205 37.00529424 42.11123477     6    66    0    0    0
H 374.84223875 34.16386110 42.58132979     6    66    0    0    0
C 372.36949054 37.21770963 42.92402617     2    66   70   71   72
H 370.95147228 36.45188277 44.24903546     6    69    0    0    0
H 372.41533787 39.22450621 43.38860508     6    69    0    0    0
C 371.46093489 36.95316320 40.18977235     2    69   73   74   75
H 372.76337269 37.89466681 38.87474645     6    72    0    0    0
H 371.39790503 35.05067806 39.50978765     6    72    0    0    0
C 368.95309193 38.33007034 39.76353075     2    72   76   77   78
H 367.27801193 37.45734670 40.67260269     6    75    0    0    0
H 369.01832546 40.12696217 40.61850080     6    75    0    0    0
C 368.34615626 38.70156996 36.98946635     2    75   79   80   81
H 369.72679054 39.86504975 36.18885892     6    78    0    0    0
H 368.08718982 36.91036278 36.01624584     6    78    0    0    0
C 366.11188560 40.48185919 36.98085717     2    78   82   83   84
H 364.73052401 39.53793142 38.09253050     6    81    0    0    0
H 366.63195948 42.38715804 37.64131909     6    81    0    0    0
C 365.12498065 40.52878793 34.14066036     1    81   85   86   87
H 363.53116394 42.07844463 34.08337967     6    84    0    0    0
H 364.49393427 38.77693756 33.17272766     6    84    0    0    0
H 366.61756097 41.17588200 32.86544072     6    84    0    0    0
H 410.75049666 43.12039294 36.90741875     6     89    0    0    0
C 409.15955007 43.09687847 35.62319817     1     88    90    91    92
H 407.68861530 43.89864052 36.77128313     6     89    0    0    0
H 409.50801313 44.15276012 33.93356750     6     89    0    0    0
C 408.74025139 40.15077561 35.18470119     2     89    93    94    95
H 410.16045176 39.41017477 33.93681263     6     92    0    0    0
H 408.70896815 39.02408828 36.84059627     6     92    0    0    0
C 406.06576899 39.78389239 33.88050515     2     92    96   97   98
H 404.47540236 40.19537146 35.17508874     6     95    0    0    0
H 406.04823137 40.82491194 32.21236672     6     95    0    0    0
C 405.51799246 37.05041691 32.90405546     2     95   99   100   101
H 406.87798979 36.66237605 31.33767051     6    98    0    0    0
H 405.95129691 35.68114797 34.29753940     6    98    0    0    0
C 402.72429224 36.62224220 32.27460213     2    98   102   103   104
H 401.57281443 36.95637673 33.92710082     6    101    0    0    0
H 402.18903685 38.04450773 30.78001910     6    101    0    0    0
C 402.08827891 34.03667556 31.33280022     2    101   105   106   107
H 402.96577574 33.80948634 29.46011372     6    104    0    0    0
H 403.03121934 32.69952396 32.48842904     6    104    0    0    0
C 399.19507333 33.62125074 31.29243919     2    104   108   109   110
H 398.57901111 34.18917673 33.08504822     6    107    0    0    0
H 398.26386467 34.73325339 29.79049770     6    107    0    0    0
C 398.62470522 30.66520123 30.90821016     2    107   111   112   113
H 399.40738038 30.20424750 29.03180965     6    110    0    0    0
H 399.72787347 29.45831296 32.06294627     6    110    0    0    0
C 395.81088553 29.92566252 30.78046595     2    110   114   115   116
H 394.90032359 30.30805828 32.51012306     6    113    0    0    0
H 394.67222656 31.20517357 29.40933179     6    113    0    0    0
C 395.29149109 27.23274000 30.17430280     2    113   117   118   119
H 396.57924130 26.64519642 28.66051730     6    116    0    0    0
H 395.40692162 26.02447269 31.88186723     6    116    0    0    0
C 392.65637222 26.59456407 29.25773422     2    116   120   121   122
H 391.30404105 27.14291217 30.70525670     6    119    0    0    0
H 392.21784092 27.63335899 27.56009231     6    119    0    0    0
C 392.44163582 23.70140028 28.88494483     1    119   123   124   125
H 390.63021243 23.13664648 28.13299916     6    122    0    0    0
H 392.68794936 22.80777216 30.71796679     6    122    0    0    0
H 393.87514476 23.14825042 27.52223522     6    122    0    0    0
H 409.92528182 31.95457258 47.87098346     6     127    0    0    0
C 409.57466805 32.76165812 49.80110578     1     126    128    129    130
H 410.19855398 31.57607806 51.34010664     6     127    0    0    0
H 410.70435279 34.44814899 49.81047149     6     127    0    0    0
C 406.79542274 33.41686641 50.17311485     2     127    131    132    133
H 406.02231604 34.57427771 48.58636607     6     130    0    0    0
H 405.85482104 31.60376267 50.24807891     6     130    0    0    0
C 406.31234518 34.85984889 52.67331805     2     130    134   135   136
H 407.51480445 34.13157392 54.15242911     6     133    0    0    0
H 406.71741504 36.79522898 52.41364202     6     133    0    0    0
C 403.64427679 35.12541786 53.57849049     2     133   137   138   139
H 402.66579234 35.87023795 52.02701127     6    136    0    0    0
H 402.84889603 33.32636023 54.00943896     6    136    0    0    0
C 403.48343490 36.80539589 55.87843999     2    136   140   141   142
H 404.78087254 36.01564726 57.36153344     6    139    0    0    0
H 404.27537481 38.57497891 55.43325991     6    139    0    0    0
C 400.88517710 36.73049247 56.96467696     2    139   143   144   145
H 399.56991110 37.71661512 55.58451529     6    142    0    0    0
H 400.16766998 34.83774408 57.17071227     6    142    0    0    0
C 400.97212334 37.97168462 59.76151728     2    142   146   147   148
H 401.98594223 36.70283903 61.02350381     6    145    0    0    0
H 401.93198067 39.79650123 59.44241218     6    145    0    0    0
C 398.57683619 38.43390364 61.10068093     2    145   149   150   151
H 397.23837772 39.35656330 59.73352127     6    148    0    0    0
H 398.00558539 36.52859218 61.42820691     6    148    0    0    0
C 398.78292008 39.82002950 63.82014932     2    148   152   153   154
H 400.69759355 39.48877342 64.43697649     6    151    0    0    0
H 398.58511879 41.81475336 63.64450987     6    151    0    0    0
C 396.72947197 38.78423367 65.48024324     2    151   155   156   157
H 396.16412382 40.38436934 66.69106318     6    154    0    0    0
H 395.17183158 38.57761275 64.17995893     6    154    0    0    0
C 397.36505232 36.33940185 66.93612984     2    154   158   159   160
H 397.93547467 34.70059991 65.76381233     6    157    0    0    0
H 398.89342885 36.70672290 68.28018997     6    157    0    0    0
C 395.23402535 35.56115268 68.77034684     1    157   161   162   163
H 394.46191482 37.00914423 70.07004669     6    160    0    0    0
H 396.01524417 33.87793929 69.69543117     6    160    0    0    0
H 393.70236923 34.70765897 67.67192164     6    160    0    0    0
H 404.82993065 63.72614740 29.98110542     6     165    0    0    0
C 404.48255257 64.80319538 31.71460567     1     164    166    167    168
H 405.74583778 66.48257100 32.08911543     6     165    0    0    0
H 402.53368580 65.41183434 31.44424697     6     165    0    0    0
C 404.46282524 62.80743860 33.92919585     2     165    169    170    171
H 402.97768146 61.49744584 33.63345685     6     168    0    0    0
H 405.96479609 61.50718095 33.83357120     6     168    0    0    0
C 404.09983593 64.11816134 36.45198361     2     168    172   173   174
H 405.65860671 65.34511541 36.77165427     6     171    0    0    0
H 402.38930311 65.36391301 36.59466031     6     171    0    0    0
C 404.19281950 62.07881843 38.65473353     2     171   175   176   177
H 402.88671960 60.64830420 38.26417118     6    174    0    0    0
H 405.97545730 61.01940357 38.21567872     6    174    0    0    0
C 404.10382978 63.20985164 41.40591627     2    174   178   179   180
H 405.39544447 64.89207821 41.44737398     6    177    0    0    0
H 402.19645619 63.83796641 41.87901353     6    177    0    0    0
C 404.91370953 61.32005747 43.39238937     2    177   181   182   183
H 403.50151437 59.78384443 43.46720094     6    180    0    0    0
H 406.48605319 60.18889224 42.62285200     6    180    0    0    0
C 405.22259169 62.62666706 46.08117581     2    180   184   185   186
H 405.29420557 64.69255897 45.98211597     6    183    0    0    0
H 403.51452712 62.17375079 47.22381216     6    183    0    0    0
C 407.60218194 61.65602662 47.40582639     2    183   187   188   189
H 407.56761925 59.56953264 47.04958932     6    186    0    0    0
H 409.16002101 62.48109619 46.37728940     6    186    0    0    0
C 407.30628240 61.84943117 50.33696971     2    186   190   191   192
H 406.73094775 63.76020076 50.81206124     6    189    0    0    0
H 405.80856157 60.48827810 51.03109790     6    189    0    0    0
C 409.94188883 61.41770844 51.61102005     2    189   193   194   195
H 410.66644418 59.47279971 51.17558293     6    192    0    0    0
H 411.41903330 62.51792025 50.67316591     6    192    0    0    0
C 409.87196804 61.94619951 54.44954628     2    192   196   197   198
H 409.17622659 63.77465801 54.96028549     6    195    0    0    0
H 408.45337768 60.67523528 55.30517886     6    195    0    0    0
C 412.60179256 61.63051674 55.42874397     1    195   199   200   201
H 412.62807636 62.09547019 57.39517790     6    198    0    0    0
H 414.08536697 62.78589903 54.66430368     6    198    0    0    0
H 413.31253723 59.68178092 55.52658626     6    198    0    0    0
H 392.18249173 72.37247308 42.33206341     6     203    0    0    0
C 391.36838049 71.18619467 40.78648398     1     202    204    205    206
H 392.60560140 71.67209300 39.22183195     6     203    0    0    0
H 391.81461523 69.18789825 41.28374601     6     203    0    0    0
C 388.57006101 71.55131343 39.96813927     2     203    207    208    209
H 387.99601838 73.55603994 40.04946637     6     206    0    0    0
H 388.25148114 71.04079297 37.96746539     6     206    0    0    0
C 386.82929003 69.87398316 41.51504950     2     206    210   211   212
H 386.74000076 67.85264344 40.94395614     6     209    0    0    0
H 387.49868822 69.98797807 43.45932759     6     209    0    0    0
C 383.96324019 70.54045860 41.59540078     2     209   213   214   215
H 383.92108172 72.55383810 41.91109256     6    212    0    0    0
H 383.12181065 70.18955006 39.65099147     6    212    0    0    0
C 382.54282314 69.19058069 43.84885264     2    212   216   217   218
H 383.20839425 67.15906586 43.79560797     6    215    0    0    0
H 383.26750371 70.07395944 45.64375119     6    215    0    0    0
C 379.67555593 69.37984093 43.97095376     2    215   219   220   221
H 379.13254867 71.36004150 43.69998531     6    218    0    0    0
H 379.11764861 68.61237604 42.10906462     6    218    0    0    0
C 378.54425975 68.30926855 46.34832357     2    218   222   223   224
H 379.77324205 66.69130361 46.95049686     6    221    0    0    0
H 378.55567054 69.77723666 47.75990888     6    221    0    0    0
C 375.84729945 67.46689350 45.85346682     2    221   225   226   227
H 374.73871296 69.09039072 45.24579845     6    224    0    0    0
H 375.83527237 66.39418005 44.06889710     6    224    0    0    0
C 374.72593669 66.16081960 48.09402110     2    224   228   229   230
H 375.10904151 64.22515225 47.82649339     6    227    0    0    0
H 375.63712227 66.55153983 49.89479332     6    227    0    0    0
C 371.78905685 66.63003027 48.31307238     2    227   231   232   233
H 371.78947883 68.61914476 48.78019472     6    230    0    0    0
H 371.10630918 66.54890209 46.38608258     6    230    0    0    0
C 369.98204344 65.16457858 49.81267911     2    230   234   235   236
H 369.85278006 63.23900696 49.26862479     6    233    0    0    0
H 370.86607683 65.14717303 51.62352657     6    233    0    0    0
C 367.34678488 66.36518093 50.08714506     1    233   237   238   239
H 366.40049349 65.79199240 51.70684305     6    236    0    0    0
H 366.35512581 65.72403844 48.39600246     6    236    0    0    0
H 367.39028013 68.38848990 50.13101284     6    236    0    0    0
H 377.65964121 32.85508454 26.67941904     6     241    0    0    0
C 377.37193575 32.86752465 28.65501974     1     240    242    243    244
H 378.54403083 31.29288576 29.41073652     6     241    0    0    0
H 377.93788111 34.69945184 29.57018943     6     241    0    0    0
C 374.46851315 32.65303754 28.96697646     2     241    245    246    247
H 373.52833904 34.14325377 28.09259556     6     244    0    0    0
H 373.92872011 30.96426022 28.10813179     6     244    0    0    0
C 373.73488279 32.86356277 31.75106192     2     244    248   249   250
H 373.86959869 30.87171315 32.59689013     6     247    0    0    0
H 375.00718748 33.98885473 32.78166393     6     247    0    0    0
C 371.11466919 34.06170039 32.19370571     2     247   251   252   253
H 370.89853085 34.18558789 34.29377212     6    250    0    0    0
H 370.85444088 35.82576491 31.23091256     6    250    0    0    0
C 369.01199410 32.29922453 30.96873851     2    250   254   255   256
H 369.25199731 32.17553536 28.87090830     6    253    0    0    0
H 369.08149403 30.52627336 31.87050679     6    253    0    0    0
C 366.41831913 33.29279674 31.67422359     2    253   257   258   259
H 366.52292386 33.41755696 33.70007637     6    256    0    0    0
H 365.89542818 35.10620502 30.75016345     6    256    0    0    0
C 364.35440989 31.46009562 30.89640830     2    256   260   261   262
H 364.21497711 31.10490129 28.81114672     6    259    0    0    0
H 364.66301551 29.51559132 31.62536836     6    259    0    0    0
C 361.68557005 32.36298198 31.67081349     2    259   263   264   265
H 361.87661785 33.20804797 33.53756020     6    262    0    0    0
H 361.38817779 33.84038389 30.34368240     6    262    0    0    0
C 359.53611098 30.29214066 31.44378719     2    262   266   267   268
H 359.54060024 29.48789683 29.54899903     6    265    0    0    0
H 359.84319756 28.66069947 32.63795643     6    265    0    0    0
C 356.83558715 31.32469125 31.87365899     2    265   269   270   271
H 356.96691566 32.08627800 33.76966124     6    268    0    0    0
H 356.53040359 32.75469652 30.45769004     6    268    0    0    0
C 354.66231280 29.35679051 32.24371749     2    268   272   273   274
H 354.19410079 28.39510599 30.38281583     6    271    0    0    0
H 355.30065806 27.99185592 33.69572075     6    271    0    0    0
C 352.15735103 30.58242388 33.20242960     1    271   275   276   277
H 352.08292335 30.62533963 35.28848191     6    274    0    0    0
H 350.44994603 29.53726634 32.63923762     6    274    0    0    0
H 351.83211543 32.52832756 32.32844219     6    274    0    0    0
H 401.66807180 57.71168458 33.61021617     6     279    0    0    0
C 399.99376148 57.00634363 32.84301828     1     278    280    281    282
H 399.41237088 58.19654123 31.33625029     6     279    0    0    0
H 400.51627430 55.05625884 32.21889202     6     279    0    0    0
C 397.82107654 56.65470493 34.83309877     2     279    283    284    285
H 398.04068021 55.22956724 36.27460880     6     282    0    0    0
H 397.56157868 58.47185105 35.83098129     6     282    0    0    0
C 395.24504309 55.54573078 33.70957189     2     282    286   287   288
H 394.66251611 56.42294214 31.85363681     6     285    0    0    0
H 395.57805357 53.59226791 33.41627067     6     285    0    0    0
C 393.01620048 55.69535897 35.59458424     2     285   289   290   291
H 393.62149412 54.97070754 37.42213209     6    288    0    0    0
H 392.46974884 57.61220190 36.02657097     6    288    0    0    0
C 390.44665685 54.35506330 34.99545088     2    288   292   293   294
H 389.83230519 55.28899892 33.22026936     6    291    0    0    0
H 390.65992688 52.26844481 34.66962662     6    291    0    0    0
C 388.46475929 54.86521529 37.14852038     2    291   295   296   297
H 388.87962757 53.82051512 38.87233501     6    294    0    0    0
H 388.44807740 56.82864395 37.54732991     6    294    0    0    0
C 385.75769650 53.88546821 36.21620822     2    294   298   299   300

   17   -1830.5057832755      7.24E-09 Convergence criterion met
 Total energy in the final basis set = -1828.18790965
 Total job time:  15.91s(wall), 28.41s(cpu)
        *  Thank you very much for using Q-Chem.  Have a nice day.  *

User input: 2 of 2

                  Welcome to Q-Chem
     A Quantum Leap Into The Future Of Chemistry

 Q-Chem 5.4 (devel), Q-Chem, Inc., Pleasanton, CA (2021)

 E. Epifanovsky,  A. T. B. Gilbert,  Xintian Feng,  Joonho Lee,  Yuezhi Mao,
 N. Mardirossian,  P. Pokhilko,  A. White,  M. Wormit,  M. P. Coons,
 A. L. Dempwolff,  Zhengting Gan,  D. Hait,  P. R. Horn,  L. D. Jacobson,
 I. Kaliman,  J. Kussmann,  A. W. Lange,  Ka Un Lao,  D. S. Levine,  Jie Liu,
 S. C. McKenzie,  A. F. Morrison,  K. Nanda,  F. Plasser,  D. R. Rehn,
 M. L. Vidal,  Zhi-Qiang You,  Ying Zhu,  B. Alam,  B. Albrecht,
 A. Aldossary,  E. Alguire,  J. H. Andersen,  D. Barton,  K. Begam,  A. Behn,
 Y. A. Bernard,  E. J. Berquist,  H. Burton,  A. Carreras,  K. Carter-Fenk,
 R. Chakraborty,  A. D. Chien,  K. D. Closser,  V. Cofer-Shabica,
 S. Dasgupta,  Jia Deng,  M. de Wergifosse,  M. Diedenhofen,  Hainam Do,
 S. Ehlert,  Po-Tung Fang,  S. Fatehi,  Qingguo Feng,  T. Friedhoff,
 J. Gayvert,  Qinghui Ge,  G. Gidofalvi,  M. Goldey,  J. Gomes,
 C. Gonzalez-Espinoza,  S. Gulania,  A. Gunina,  M. W. D. Hanson-Heine,
 P. H. P. Harbach,  A. W. Hauser,  M. F. Herbst,  M. Hernandez Vera,
 M. Hodecker,  Z. C. Holden,  S. Houck,  Xunkun Huang,  Kerwin Hui,
 B. C. Huynh,  M. Ivanov,  Hyunjun Ji,  Hanjie Jiang,  B. Kaduk,  S. Kaehler,
 K. Khistyaev,  Jaehoon Kim,  P. Klunzinger,  Z. Koczor-Benda,
 Joong Hoon Koh,  D. Kosenkov,  L. Koulias,  T. Kowalczyk,  C. M. Krauter,
 K. Kue,  A. Kunitsa,  T. Kus,  A. Landau,  K. V. Lawler,  D. Lefrancois,
 S. Lehtola,  Rain Li,  Yi-Pei Li,  Jiashu Liang,  M. Liebenthal,
 Hung-Hsuan Lin,  You-Sheng Lin,  Fenglai Liu,  Kuan-Yu Liu,
 M. Loipersberger,  A. Luenser,  A. Manjanath,  P. Manohar,  E. Mansoor,
 S. F. Manzer,  Shan-Ping Mao,  A. V. Marenich,  T. Markovich,  S. Mason,
 S. A. Maurer,  P. F. McLaughlin,  M. F. S. J. Menger,  J.-M. Mewes,
 S. A. Mewes,  P. Morgante,  J. W. Mullinax,  K. J. Oosterbaan,  G. Paran,
 Alexander C. Paul,  Suranjan K. Paul,  F. Pavosevic,  Zheng Pei,  S. Prager,
 E. I. Proynov,  E. Ramos,  B. Rana,  A. E. Rask,  A. Rettig,  R. M. Richard,
 F. Rob,  E. Rossomme,  T. Scheele,  M. Scheurer,  M. Schneider,
 N. Sergueev,  S. M. Sharada,  W. Skomorowski,  D. W. Small,  C. J. Stein,
 Yu-Chuan Su,  E. J. Sundstrom,  Zhen Tao,  J. Thirman,  T. Tsuchimochi,
 N. M. Tubman,  S. P. Veccham,  O. Vydrov,  J. Wenzel,  J. Witte,  A. Yamada,
 Kun Yao,  S. Yeganeh,  S. R. Yost,  A. Zech,  Igor Ying Zhang,  Xing Zhang,
 Yu Zhang,  D. Zuev,  A. Aspuru-Guzik,  A. T. Bell,  N. A. Besley,
 K. B. Bravaya,  B. R. Brooks,  D. Casanova,  Jeng-Da Chai,  S. Coriani,
 C. J. Cramer,  A. E. DePrince, III,  R. A. DiStasio Jr.,  A. Dreuw,
 B. D. Dunietz,  T. R. Furlani,  W. A. Goddard III,  S. Grimme,
 S. Hammes-Schiffer,  T. Head-Gordon,  W. J. Hehre,  Chao-Ping Hsu,
 T.-C. Jagau,  Yousung Jung,  A. Klamt,  Jing Kong,  D. S. Lambrecht,
 WanZhen Liang,  N. J. Mayhall,  C. W. McCurdy,  J. B. Neaton,
 C. Ochsenfeld,  J. A. Parkhill,  R. Peverati,  V. A. Rassolov,  Yihan Shao,
 L. V. Slipchenko,  T. Stauch,  R. P. Steele,  J. E. Subotnik,
 A. J. W. Thom,  A. Tkatchenko,  D. G. Truhlar,  T. Van Voorhis,
 T. A. Wesolowski,  K. B. Whaley,  H. L. Woodcock III,  P. M. Zimmerman,
 S. Faraji,  P. M. W. Gill,  M. Head-Gordon,  J. M. Herbert,  A. I. Krylov

 Additional authors for Version 5.4.1:
 S. Kotaru,  Shaozhi Li,  Xiangyuan Li,  F. Matz,  A. Molle,  Haisheng Ren,
 Yingli Su,  Hung-Yi Tsai,  C. Utku,  Fang Wang

 Contributors to earlier versions of Q-Chem not listed above:
 R. D. Adamson,  B. Austin,  R. Baer,  J. Baker,  G. J. O. Beran,
 K. Brandhorst,  S. T. Brown,  E. F. C. Byrd,  A. K. Chakraborty,
 G. K. L. Chan,  Chun-Min Chang,  Yunqing Chen,  C.-L. Cheng,
 Siu Hung Chien,  D. M. Chipman,  D. L. Crittenden,  H. Dachsel,
 R. J. Doerksen,  A. D. Dutoi,  R. G. Edgar,  J. Fosso-Tande,
 L. Fusti-Molnar,  D. Ghosh,  A. Ghysels,  A. Golubeva-Zadorozhnaya,
 J. Gonthier,  M. S. Gordon,  S. R. Gwaltney,  G. Hawkins,  J. E. Herr,
 A. Heyden,  S. Hirata,  E. G. Hohenstein,  G. Kedziora,  F. J. Keil,
 C. Kelley,  Jihan Kim,  R. A. King,  R. Z. Khaliullin,  P. P. Korambath,
 W. Kurlancheek,  A. Laurent,  A. M. Lee,  M. S. Lee,  S. V. Levchenko,
 Ching Yeh Lin,  D. Liotard,  E. Livshits,  R. C. Lochan,  I. Lotan,
 L. A. Martinez-Martinez,  P. E. Maslen,  N. Nair,  D. P. O'Neill,
 D. Neuhauser,  E. Neuscamman,  C. M. Oana,  R. Olivares-Amaya,  R. Olson,
 T. M. Perrine,  B. Peters,  P. A. Pieniazek,  A. Prociuk,  Y. M. Rhee,
 J. Ritchie,  M. A. Rohrdanz,  E. Rosta,  N. J. Russ,  H. F. Schaefer III,
 M. W. Schmidt,  N. E. Schultz,  S. Sharma,  N. Shenvi,  C. D. Sherrill,
 A. C. Simmonett,  A. Sodt,  T. Stein,  D. Stuck,  K. S. Thanthiriwatte,
 V. Vanovschi,  L. Vogt,  Tao Wang,  A. Warshel,  M. A. Watson,
 C. F. Williams,  Q. Wu,  X. Xu,  Jun Yang,  W. Zhang,  Yan Zhao

 Please cite Q-Chem as follows:
 Y. Shao et al., Mol. Phys. 113, 184-215 (2015)
 DOI: 10.1080/00268976.2014.952696

 Q-Chem 5.4.1 for Intel X86 EM64T Linux

 Parts of Q-Chem use Armadillo 9.900.5 (Nocturnal Misbehaviour).
 http://arma.sourceforge.net/

 Q-Chem begins on Wed Jun 22 08:05:41 2022

 Host: p09r16n04.grace.hpc.yale.internal
0

     Scratch files written to /home/tl686/scratch60/qchem_dev/scratch/qchem69277//
 Processing $rem in /home/tl686/qchem_dev/qchem/config/preferences:
 Processing $rem in /home/tl686/.qchemrc:
Applying user defined connections for MM calculations
The previous job contains 0 fragments, simply inherited here

 Checking the input file for inconsistencies... 	...done.

--------------------------------------------------------------
User input:
--------------------------------------------------------------

$molecule
READ
$end

$qm_atoms
1:11
$end

$force_field_params
NumAtomTypes 3
AtomType -1   0.0238     3.11   0.2868
AtomType -2   0.07124    3.30   0.6597
AtomType -3  -0.0760     3.09   0.1434
$end

$rem
     JOBTYPE  freq
     METHOD   bp86
     BASIS    def2-msvp
     MAX_SCF_CYCLES   800
     INPUT_BOHR TRUE
     SYM_IGNORE TRUE
     SCF_GUESS     read
     user_connect            true
     qm_mm_interface         ONIOM
     force_field             oplsaa
$end

--------------------------------------------------------------

    3   -1830.5057832757      3.40E-09 Convergence criterion met
 Total energy in the final basis set = -1828.18790965

                    Orbital Energies (a.u.)
 --------------------------------------------------------------

 Alpha MOs
 -- Occupied --
******** -29.6352 -25.5944 -25.5847 -25.5769 -18.9002 -18.8907 -18.8776
-18.8706 -18.8668 -10.0612 -10.0592 -10.0513 -10.0423 -10.0336  -3.3197
 -2.1529  -2.1377  -2.1183  -1.0969  -1.0605  -1.0465  -1.0291  -1.0183
 -0.5741  -0.5327  -0.5209  -0.5147  -0.5125  -0.4598  -0.4579  -0.4529
 -0.4420  -0.4367  -0.4271  -0.4229  -0.4136  -0.4058  -0.4028  -0.3965
 -0.3962  -0.3942  -0.3908  -0.3796  -0.2804  -0.2618  -0.2320  -0.2242

          Ground-State Mulliken Net Atomic Charges

     Atom                 Charge (a.u.)
  ----------------------------------------
      1 Fe                   -0.461439
      2 C                     0.215438
      3 C                     0.193932
      4 C                     0.250909
      5 C                     0.224696
      6 C                     0.156770
      7 O                    -0.107088
      8 O                    -0.056546
      9 O                    -0.151343
     10 O                    -0.143112
     11 O                    -0.122216
  ----------------------------------------
  Sum of atomic charges =     0.000000

                    Cartesian Multipole Moments
 -----------------------------------------------------------------
    Charge (ESU x 10^10)
                -0.0000
    Dipole Moment (Debye)
         X      -0.2372218196      Y       0.5247886606      Z      -0.1570944951
       Tot       0.5969556185
    Quadrupole Moments (Debye-Ang)
        XX    -166.6952     XY     101.7394     YY     -45.1818
        XZ     -38.7309     YZ      14.0754     ZZ     -81.3110

 Frequency:      -207.92                -201.97                 -45.01
 Force Cnst:      0.4107                 0.3868                 0.0183
 Red. Mass:      16.1225                16.0946                15.3637
 IR Intens:        0.000                  0.000                  0.000
 Frequency:        72.17                 125.80                 129.61
 Force Cnst:      0.0492                 0.1488                 0.1540
 Red. Mass:      16.0369                15.9601                15.5573
 IR Intens:        0.000                  0.000                  0.000
 Frequency:       160.23                 266.88                 312.36
 Force Cnst:      0.2530                 0.5449                 0.7488
 Red. Mass:      16.7284                12.9849                13.0254
 IR Intens:        0.000                  0.000                  0.000
 Frequency:       376.85                 386.80                 408.31
 Force Cnst:      1.1060                 1.2414                 1.4206
 Red. Mass:      13.2188                14.0825                14.4617
 IR Intens:        0.000                  0.000                  0.000
 Frequency:       432.35                 461.17                 470.71
 Force Cnst:      1.6834                 1.8481                 1.7975
 Red. Mass:      15.2845                14.7487                13.7697
 IR Intens:        0.000                  0.000                  0.000
 Frequency:       496.03                 539.17                 572.42
 Force Cnst:      2.0165                 2.2710                 2.4752
 Red. Mass:      13.9102                13.2593                12.8211
 IR Intens:        0.000                  0.000                  0.000
 Frequency:       584.93                 626.07                 648.13
 Force Cnst:      2.6109                 3.4835                 3.9706
 Red. Mass:      12.9517                15.0837                16.0429
 IR Intens:        0.000                  0.000                  0.000
 Frequency:       668.81                1719.03                1770.64
 Force Cnst:      5.0892                23.2247                24.5923
 Red. Mass:      19.3104                13.3393                13.3134
 IR Intens:        0.000                  0.000                  0.000
 Frequency:      1991.96                2124.82                2358.32
 Force Cnst:     31.2042                35.2824                43.8556
 Red. Mass:      13.3476                13.2636                13.3835
 IR Intens:        0.000                  0.000                  0.000

 STANDARD THERMODYNAMIC QUANTITIES AT   298.15 K  AND     1.00 ATM

   This Molecule has  3 Imaginary Frequencies
   Zero point vibrational energy:       25.309 kcal/mol

   Atom    1 Element Fe Has Mass   55.93490
   Atom    2 Element C  Has Mass   12.00000
   Atom    3 Element C  Has Mass   12.00000
   Atom    4 Element C  Has Mass   12.00000
   Atom    5 Element C  Has Mass   12.00000
   Atom    6 Element C  Has Mass   12.00000
   Atom    7 Element O  Has Mass   15.99491
   Atom    8 Element O  Has Mass   15.99491
   Atom    9 Element O  Has Mass   15.99491
   Atom   10 Element O  Has Mass   15.99491
   Atom   11 Element O  Has Mass   15.99491
   Molecular Mass:   195.909450 amu
   Principal axes and moments of inertia in amu*Bohr^2:
                             1           2           3
    Eigenvalues --     1989.40964  2134.87207  2376.48194
          X               0.32047    -0.43427     0.84185
          Y               0.90425    -0.12450    -0.40845
          Z               0.28219     0.89214     0.35279
   Rotational Symmetry Number is   1
   The Molecule is an Asymmetric Top
   Translational Enthalpy:        0.889 kcal/mol
   Rotational Enthalpy:           0.889 kcal/mol
   Vibrational Enthalpy:         29.429 kcal/mol
   gas constant (RT):             0.592 kcal/mol
   Translational Entropy:        41.722  cal/mol.K
   Rotational Entropy:           30.690  cal/mol.K
   Vibrational Entropy:          24.261  cal/mol.K

   Total Enthalpy:               31.798 kcal/mol
   Total Entropy:                96.674  cal/mol.K

 Total job time:  123.35s(wall), 243.30s(cpu)
        *  Thank you very much for using Q-Chem.  Have a nice day.  *
