 Q-Chem 5.4 (devel), Q-Chem, Inc., Pleasanton, CA (2021)
 Q-Chem 5.4.1 for Intel X86 EM64T Linux

User input:
--------------------------------------------------------------
$molecule
0   1
 Fe -632.80898013 -48.42728702 -27.94452450    -1  0   0   0   0
C -632.73242513 -51.69637640 -28.54565932    -2  0   0   0   0
C -631.82910684 -45.28049276 -27.29086834    -2  0   0   0   0
C -631.80077348 -47.85393102 -31.06961756    -2  0   0   0   0
C -636.11266840 -48.10262004 -28.02442951    -2  0   0   0   0
C -631.14661314 -49.18643562 -24.97515683    -2  0   0   0   0
O -632.51285472 -53.88076760 -28.81142595    -3  0   0   0   0
O -631.26599355 -43.21911812 -26.66208648    -3  0   0   0   0
O -631.18005782 -47.46268916 -33.10429419    -3  0   0   0   0
O -638.35504806 -47.70055215 -28.05561697    -3  0   0   0   0
O -629.80366967 -49.48117285 -23.27648268    -3  0   0   0   0
H -643.96759889 -65.83416317 -48.08111499      6     13    0    0    0
C -643.59366786 -67.53942090 -47.05691263     1     12    14    15    16
H -643.52502020 -68.93955310 -48.58438938     6     13    0    0    0
H -641.67016217 -67.46607191 -46.12791495     6     13    0    0    0
C -645.67386664 -68.23840522 -45.12014417     2     13    17    18    19
H -647.40278095 -68.53684955 -46.12803702     6     16    0    0    0
H -645.14773534 -70.13234901 -44.51157537     6     16    0    0    0
C -645.80252199 -66.31826267 -42.86428164     2     16    20   21   22
H -643.87538796 -66.19722081 -42.15061770     6     19    0    0    0
H -646.25337702 -64.43414319 -43.65462102     6     19    0    0    0
C -647.87019409 -67.34033425 -40.94419845     2     19   23   24   25
H -649.61784080 -67.16800003 -41.96975075     6    22    0    0    0
H -647.54633002 -69.21407013 -40.20202843     6    22    0    0    0
C -647.89222445 -65.51067534 -38.64524363     2    22   26   27   28
H -646.19635300 -65.73538893 -37.45882252     6    25    0    0    0
H -647.78668512 -63.63678772 -39.51476639     6    25    0    0    0
C -650.17697769 -65.63229691 -36.91293290     2    25   29   30   31
H -651.82350597 -65.28951198 -37.88618292     6    28    0    0    0
H -650.30994022 -67.50507337 -36.10509096     6    28    0    0    0
C -650.02796286 -63.64481608 -34.84585874     2    28   32   33   34
H -647.99077025 -63.74095244 -34.31732811     6    31    0    0    0
H -650.61312214 -61.73399960 -35.29936982     6    31    0    0    0
C -651.69794127 -64.38513164 -32.46194397     2    31   35   36   37
H -653.52106839 -64.80023260 -33.29216066     6    34    0    0    0
H -651.06054455 -66.16405796 -31.63702558     6    34    0    0    0
C -652.05308909 -62.46962955 -30.27575939     2    34   38   39   40
H -650.10661904 -61.65567183 -29.91690033     6    37    0    0    0
H -653.33863369 -60.89949222 -30.85186759     6    37    0    0    0
C -652.94007767 -63.88262765 -27.99072618     2    37   41   42   43
H -654.82736303 -64.82062132 -28.37732168     6    40    0    0    0
H -651.75805618 -65.32527915 -27.41205401     6    40    0    0    0
C -653.15286716 -62.10997019 -25.69625309     2    40   44   45   46
H -651.30511846 -61.52790499 -25.02738823     6    43    0    0    0
H -654.08219690 -60.26675377 -26.14067489     6    43    0    0    0
C -654.31082957 -63.46090809 -23.42060313     1    43   47   48   49
H -656.08112716 -64.42060264 -23.77485938     6    46    0    0    0
H -654.50406102 -62.10564744 -21.78521363     6    46    0    0    0
H -653.14301037 -65.05271427 -22.92733163     6    46    0    0    0
H -637.39903748 -54.80905094 -25.70842741     6     51    0    0    0
C -639.34758479 -54.36291057 -25.42124620     1     50    52    53    54
H -639.31298662 -52.26621009 -25.02177398     6     51    0    0    0
H -640.21918780 -54.59797815 -27.17821878     6     51    0    0    0
C -640.88512382 -55.95317152 -23.49195406     2     51    55    56    57
H -641.05472812 -57.83989197 -24.33410146     6     54    0    0    0
H -639.87171482 -56.18571753 -21.73043277     6     54    0    0    0
C -643.54026949 -55.00051276 -22.80843500     2     54    58   59   60
H -643.33260986 -53.36620623 -21.54026985     6     57    0    0    0
H -644.38751743 -54.23071118 -24.51873791     6     57    0    0    0
C -645.33004254 -56.97172728 -21.58658199     2     57   61   62   63
H -645.56152217 -58.61583162 -22.83795035     6    60    0    0    0
H -644.31884017 -57.64591004 -19.92952184     6    60    0    0    0
C -647.96414894 -56.01582437 -20.58876867     2    60   64   65   66
H -647.72299519 -55.04869401 -18.80848070     6    63    0    0    0
H -648.71613356 -54.63973570 -21.90379596     6    63    0    0    0
C -649.74176612 -58.13925734 -20.15809678     2    63   67   68   69
H -651.56338507 -57.27783755 -19.90926116     6    66    0    0    0
H -649.55599371 -59.64046705 -21.57650714     6    66    0    0    0
C -649.06651677 -59.30922621 -17.63782672     2    66   70   71   72
H -647.10095151 -60.00623910 -17.45260780     6    69    0    0    0
H -649.12565327 -57.97111004 -16.07606030     6    69    0    0    0
C -650.57268798 -61.54532327 -16.68911869     2    69   73   74   75
H -652.51624072 -60.90843858 -16.71051248     6    72    0    0    0
H -650.57234267 -63.17323457 -18.00018858     6    72    0    0    0
C -649.72057208 -62.54816500 -14.13229118     2    72   76   77   78
H -647.94270924 -63.28644283 -14.31519013     6    75    0    0    0
H -649.62542672 -61.12515045 -12.72285820     6    75    0    0    0
C -651.49062725 -64.68388733 -13.37691781     2    75   79   80   81
H -653.40891562 -63.95273564 -13.50320912     6    78    0    0    0
H -651.11325025 -66.14986781 -14.78943303     6    78    0    0    0
C -651.33553152 -65.54868808 -10.48544446     2    78   82   83   84
H -649.56664663 -66.44726816 -10.14432040     6    81    0    0    0
H -651.45967206 -64.13040717 -9.08486129     6    81    0    0    0
C -653.33360514 -67.59647312 -9.96590638     1    81   85   86   87
H -653.86257033 -67.71104353 -8.02458856     6    84    0    0    0
H -652.79384766 -69.56417478 -10.52116715     6    84    0    0    0
H -655.10878271 -67.16465204 -10.88926272     6    84    0    0    0
H -662.85759364 -44.88043477 -49.00452100     6     89    0    0    0
C -663.34469464 -46.73140411 -49.23104319     1     88    90    91    92
H -664.48514757 -47.21595124 -47.52093924     6     89    0    0    0
H -664.23061815 -46.81169377 -51.03432311     6     89    0    0    0
C -661.03749215 -48.50588477 -49.14324501     2     89    93    94    95
H -659.67523088 -48.13187832 -50.67053544     6     92    0    0    0
H -660.05699062 -47.77663840 -47.43473518     6     92    0    0    0
C -661.56365525 -51.39397078 -49.09876328     2     92    96   97   98
H -662.91881736 -51.95205315 -47.69416528     6     95    0    0    0
H -662.38713303 -51.93993280 -50.81419772     6     95    0    0    0
C -659.17054043 -52.84395831 -48.88299685     2     95   99   100   101
H -657.83668390 -52.27664196 -50.31665780     6    98    0    0    0
H -658.30077906 -52.14142686 -47.20820564     6    98    0    0    0
C -659.24023961 -55.69111714 -48.83219284     2    98   102   103   104
H -659.53686080 -56.42346574 -50.77977461     6    101    0    0    0
H -657.37447370 -56.24912468 -48.11542256     6    101    0    0    0
C -661.14607295 -56.89047442 -47.02288619     2    101   105   106   107
H -660.80127331 -55.79151035 -45.48155087     6    104    0    0    0
H -663.18652514 -56.28190264 -47.48394063     6    104    0    0    0
C -660.95945604 -59.70338188 -46.22250538     2    104   108   109   110
H -661.27241511 -60.87698104 -47.83437859     6    107    0    0    0
H -659.22067046 -60.41979010 -45.50093518     6    107    0    0    0
C -662.92909476 -60.20421163 -44.20188238     2    107   111   112   113
H -662.59368750 -58.77086974 -42.80365638     6    110    0    0    0
H -664.76520799 -59.44936340 -44.73793477     6    110    0    0    0
C -662.68562939 -62.87475626 -43.05549368     2    110   114   115   116
H -662.18853156 -64.16863920 -44.56003037     6    113    0    0    0
H -661.07465293 -62.77377172 -41.85857607     6    113    0    0    0
C -664.96321427 -63.86493452 -41.53271591     2    113   117   118   119
H -665.59619504 -62.62276138 -39.91374070     6    116    0    0    0
H -666.61455732 -64.04113937 -42.85177865     6    116    0    0    0
C -664.49631670 -66.45961886 -40.39601396     2    116   120   121   122
H -663.97400329 -67.84276940 -41.77889439     6    119    0    0    0
H -663.10343777 -66.23886604 -38.96485907     6    119    0    0    0
C -666.77525035 -67.73753657 -39.05670058     1    119   123   124   125
H -666.29978434 -69.62961051 -38.33766462     6    122    0    0    0
H -668.56935414 -67.68804494 -40.10032413     6    122    0    0    0
H -667.29922608 -66.60326287 -37.50650870     6    122    0    0    0
H -652.46368484 -33.37272337 -51.38666891     6     127    0    0    0
C -651.43306500 -33.55462019 -49.53619702     1     126    128    129    130
H -651.04743880 -31.71113989 -48.73943387     6     127    0    0    0
H -652.66717484 -34.41294241 -48.34883411     6     127    0    0    0
C -648.96541447 -35.06903993 -49.49888124     2     127    131    132    133
H -649.45892336 -37.05125198 -49.43701878     6     130    0    0    0
H -648.01751103 -34.37376261 -51.23281943     6     130    0    0    0
C -647.38935989 -34.29930250 -47.35349394     2     130    134   135   136
H -647.00937361 -32.25206038 -47.11694357     6     133    0    0    0
H -648.07757341 -35.02480717 -45.52164795     6     133    0    0    0
C -644.82375140 -35.77272678 -47.50085032     2     133   137   138   139
H -645.22904671 -37.73636604 -48.04012993     6    136    0    0    0
H -643.80392167 -34.92548819 -49.06685751     6    136    0    0    0
C -643.28971230 -35.65949030 -45.11042013     2    136   140   141   142
H -642.76220293 -33.73424784 -44.37072441     6    139    0    0    0
H -644.29386677 -36.28728836 -43.39680299     6    139    0    0    0
C -640.96322413 -37.23548804 -45.26709765     2    139   143   144   145
H -641.18483982 -39.34689494 -45.21114960     6    142    0    0    0
H -640.17050349 -36.97059037 -47.12844653     6    142    0    0    0
C -639.15202636 -36.80292571 -43.05407827     2    142   146   147   148
H -638.62755174 -34.70330005 -42.81675791     6    145    0    0    0
H -640.02683859 -37.41823364 -41.30351122     6    145    0    0    0
C -636.64556557 -38.19345236 -43.39847176     2    145   149   150   151
H -637.09128473 -40.11000588 -44.11750908     6    148    0    0    0
H -635.81171776 -37.40591684 -45.05414715     6    148    0    0    0
C -634.94801209 -38.15715427 -41.09030840     2    148   152   153   154
H -635.02696162 -36.25387731 -40.10822837     6    151    0    0    0
H -635.67244674 -39.40277141 -39.76212647     6    151    0    0    0
C -632.13585893 -38.81107032 -41.58165075     2    151   155   156   157
H -631.39469609 -39.62353650 -39.71690080     6    154    0    0    0
H -631.74918869 -40.46751958 -42.99714017     6    154    0    0    0
C -630.54711053 -36.37036110 -42.16900568     2    154   158   159   160
H -631.29369127 -35.56194720 -43.87671778     6    157    0    0    0
H -630.69628214 -34.82917035 -40.66704838     6    157    0    0    0
C -627.76745539 -37.06921071 -42.73461332     1    157   161   162   163
H -626.73042397 -38.06510501 -41.11695305     6    160    0    0    0
H -626.58284410 -35.58418938 -43.28097053     6    160    0    0    0
H -627.54212584 -38.15323395 -44.41541330     6    160    0    0    0
H -663.11638387 -39.68134030 -47.19992536     6     165    0    0    0
C -662.69900795 -39.65681418 -45.11271080     1     164    166    167    168
H -664.34702696 -38.85289573 -44.19437946     6     165    0    0    0
H -662.42947279 -41.64750534 -44.42681385     6     165    0    0    0
C -660.59763328 -37.70019887 -44.61642925     2     165    169    170    171
H -658.92188967 -38.58937588 -44.00056133     6     168    0    0    0
H -659.99068363 -36.91163373 -46.41254455     6     168    0    0    0
C -661.31739239 -35.83136063 -42.62263556     2     168    172   173   174
H -663.06512254 -35.14350995 -43.36228227     6     171    0    0    0
H -661.65840208 -36.52857542 -40.76263668     6     171    0    0    0
C -659.51680221 -33.58493242 -42.22049134     2     171   175   176   177
H -657.52582757 -33.95659432 -42.06060046     6    174    0    0    0
H -659.77226004 -32.59390749 -43.97480512     6    174    0    0    0
C -660.27664608 -31.74293468 -40.02832061     2    174   178   179   180
H -662.19871603 -31.14814326 -40.39969567     6    177    0    0    0
H -660.08596714 -32.44077137 -38.11400484     6    177    0    0    0
C -658.52819922 -29.44111271 -39.99927858     2    177   181   182   183
H -656.62831694 -30.20791867 -39.97496404     6    180    0    0    0
H -658.81538026 -28.55569541 -41.84347463     6    180    0    0    0
C -659.00999466 -27.65608935 -37.92816090     2    180   184   185   186
H -661.07223698 -27.18619970 -38.17297296     6    183    0    0    0
H -659.05921653 -28.63424310 -36.19520647     6    183    0    0    0
C -657.08756162 -25.58910875 -37.62743208     2    183   187   188   189
H -655.07870539 -26.42731846 -37.39461547     6    186    0    0    0
H -657.11442349 -24.49707134 -39.45391283     6    186    0    0    0
C -657.66327738 -23.94661551 -35.30376027     2    186   190   191   192
H -659.62179251 -23.29665349 -35.57681723     6    189    0    0    0
H -657.60415963 -25.06206424 -33.54949966     6    189    0    0    0
C -655.85962273 -21.69845180 -35.06497814     2    189   193   194   195
H -653.90303474 -22.25210232 -35.25131485     6    192    0    0    0
H -656.13234653 -20.34435581 -36.51306215     6    192    0    0    0
C -656.44820034 -20.17388131 -32.65277498     2    192   196   197   198
H -658.41091030 -19.44591443 -32.59594599     6    195    0    0    0
H -656.52668803 -21.51511678 -31.09022421     6    195    0    0    0
C -654.56371116 -17.98369207 -32.09866096     1    195   199   200   201
H -655.46936884 -16.87857029 -30.48217268     6    198    0    0    0
H -654.64120372 -16.60094461 -33.77351397     6    198    0    0    0
H -652.70404851 -18.69235009 -32.00286096     6    198    0    0    0
H -661.37765173 -42.35885860 -18.09706954     6     203    0    0    0
C -661.45223581 -41.58459155 -19.94450766     1     202    204    205    206
H -660.40269226 -42.77390427 -21.23690017     6     203    0    0    0
H -663.41098044 -41.85632994 -20.46124071     6     203    0    0    0
C -660.84263084 -38.67845488 -19.92425519     2     203    207    208    209
H -658.97153192 -38.37944312 -19.60839913     6     206    0    0    0
H -661.23383964 -37.90486122 -21.84914494     6     206    0    0    0
C -662.81381990 -37.32336238 -18.08454680     2     206    210   211   212
H -662.64544262 -35.31225745 -18.54067256     6     209    0    0    0
H -664.83504237 -37.82146644 -18.48045841     6     209    0    0    0
C -662.27094866 -37.62119247 -15.27581728     2     209   213   214   215
H -662.45667697 -39.64949913 -14.70722174     6    212    0    0    0
H -660.26930767 -37.19437763 -14.92238711     6    212    0    0    0
C -663.96072845 -35.99500783 -13.60051276     2    212   216   217   218
H -663.89258398 -34.06758376 -14.45587659     6    215    0    0    0
H -665.89964901 -36.90321822 -13.65189183     6    215    0    0    0
C -663.30397906 -36.06956178 -10.77065414     2    215   219   220   221
H -662.92260854 -38.01244865 -10.10968276     6    218    0    0    0
H -661.62949537 -34.84726277 -10.71729194     6    218    0    0    0
C -665.33404618 -35.09566111 -9.06634294     2    218   222   223   224
H -665.62342429 -33.20249168 -9.90286092     6    221    0    0    0
H -667.10557979 -35.92362515 -9.56597331     6    221    0    0    0
C -664.54819246 -35.01880924 -6.19010008     2    221   225   226   227
H -663.90049799 -36.85953620 -5.41870749     6    224    0    0    0
H -662.92663009 -33.82094672 -6.14947664     6    224    0    0    0
C -666.64598849 -33.84802747 -4.55922780     2    224   228   229   230
H -667.10408337 -32.16067936 -5.54105779     6    227    0    0    0
H -668.43775961 -34.90678356 -4.46100605     6    227    0    0    0
C -665.46771162 -33.43665266 -1.88171246     2    227   231   232   233
H -664.80819577 -34.92657264 -0.82811774     6    230    0    0    0
H -663.76922796 -32.31781756 -1.96716345     6    230    0    0    0
C -667.14397631 -31.67670340 -0.30547022     2    230   234   235   236
H -667.39972733 -30.02379924 -1.46278228     6    233    0    0    0
H -669.12277638 -32.56295666 -0.10558114     6    233    0    0    0
C -666.02447778 -30.92738083 2.24927084     1    233   237   238   239
H -667.04982923 -29.53312619 3.47338909     6    236    0    0    0
H -664.10021203 -30.18865574 2.01474758     6    236    0    0    0
H -665.73958805 -32.57789569 3.48871875     6    236    0    0    0
H -666.25005315 -63.31341586 -14.61296199     6     241    0    0    0
C -666.52911837 -64.21253832 -16.45759673     1     240    242    243    244
H -668.27946099 -65.00157257 -16.39380742     6     241    0    0    0
H -666.78853432 -62.81520862 -17.80883281     6     241    0    0    0
C -664.31482552 -65.91479185 -17.14100203     2     241    245    246    247
H -663.90439393 -67.20491032 -15.69239593     6     244    0    0    0
H -664.80243538 -67.15183856 -18.74457475     6     244    0    0    0
C -661.95485448 -64.23685717 -17.69945212     2     244    248   249   250
H -662.05896667 -63.34504884 -19.62879465     6     247    0    0    0
H -661.69901092 -62.64570131 -16.33895639     6     247    0    0    0
C -659.45418925 -65.65863131 -17.33538485     2     247   251   252   253
H -657.88888698 -64.26576021 -17.80262155     6    250    0    0    0
H -659.42044873 -66.43958356 -15.28528252     6    250    0    0    0
C -659.13846245 -68.12403907 -19.00876395     2    250   254   255   256
H -660.32790214 -69.50966272 -18.10162389     6    253    0    0    0
H -659.95867482 -67.72031419 -20.79744894     6    253    0    0    0
C -656.49647308 -69.24832625 -19.21173317     2    253   257   258   259
H -656.40919244 -70.63264930 -20.69107209     6    256    0    0    0
H -655.14499072 -67.81066610 -19.59901982     6    256    0    0    0
C -655.75719361 -70.83850663 -16.79292713     2    256   260   261   262
H -655.60218980 -69.45569111 -15.30001517     6    259    0    0    0
H -657.47303536 -72.05515040 -16.56494625     6    259    0    0    0
C -653.32797533 -72.48745567 -16.87894545     2    259   263   264   265
H -653.35692032 -73.61192736 -18.57316921     6    262    0    0    0
H -651.76596598 -71.23586885 -17.06519432     6    262    0    0    0
C -653.12950425 -74.39396937 -14.71820092     2    262   266   267   268
H -653.36847554 -73.16802379 -13.08297663     6    265    0    0    0
H -654.65703037 -75.81757984 -14.93595457     6    265    0    0    0
C -650.49654856 -75.68106644 -14.25492882     2    265   269   270   271
H -650.04595744 -76.52800011 -16.12318258     6    268    0    0    0
H -649.26173288 -74.06709622 -13.93014118     6    268    0    0    0
C -650.39943074 -77.77285960 -12.23351460     2    268   272   273   274
H -650.94565768 -76.97310521 -10.26188528     6    271    0    0    0
H -651.84347417 -79.17886674 -12.52441363     6    271    0    0    0
C -647.73400867 -78.99830561 -12.47366902     1    271   275   276   277
H -647.42384763 -80.00851910 -14.14431144     6    274    0    0    0
H -647.54531912 -80.36024267 -10.83418534     6    274    0    0    0
H -646.20777444 -77.67549519 -12.14326124     6    274    0    0    0
H -666.20426717 -52.35050655 -26.03725293     6     279    0    0    0
C -666.25838759 -53.21715677 -24.22844607     1     278    280    281    282
H -667.99053287 -54.33143213 -24.39184568     6     279    0    0    0
H -664.50115032 -54.36459149 -24.53050652     6     279    0    0    0
C -666.11138160 -51.39513684 -21.97691935     2     279    283    284    285
H -664.31192991 -50.36865534 -21.99055106     6     282    0    0    0
H -667.38271457 -49.94420695 -21.84866464     6     282    0    0    0
C -666.29854854 -53.01329562 -19.48262038     2     282    286   287   288
H -668.03538897 -54.09878061 -19.72056871     6     285    0    0    0
H -664.56993857 -54.25007917 -19.17972172     6     285    0    0    0
C -666.70509511 -51.18738755 -17.30260493     2     285   289   290   291
H -665.31366482 -49.59971459 -17.45623732     6    288    0    0    0
H -668.72339014 -50.64038875 -17.53204720     6    288    0    0    0
C -666.77488141 -52.50062171 -14.69587271     2    288   292   293   294
H -668.44021113 -51.93649615 -13.66044188     6    291    0    0    0
H -667.07227304 -54.51606929 -15.13265101     6    291    0    0    0
C -664.35480403 -52.13247566 -12.99416908     2    291   295   296   297
H -662.78643117 -53.14456544 -13.91518189     6    294    0    0    0
H -663.66643706 -50.29180043 -12.65835200     6    294    0    0    0
C -664.80726314 -53.09861251 -10.23452334     2    294   298   299   300

   17   -1830.5166925482      1.78E-09 Convergence criterion met
 Total energy in the final basis set = -1828.24103400
 Total job time:  16.67s(wall), 29.91s(cpu)
        *  Thank you very much for using Q-Chem.  Have a nice day.  *

User input: 2 of 2

                  Welcome to Q-Chem
     A Quantum Leap Into The Future Of Chemistry

 Q-Chem 5.4 (devel), Q-Chem, Inc., Pleasanton, CA (2021)

 E. Epifanovsky,  A. T. B. Gilbert,  Xintian Feng,  Joonho Lee,  Yuezhi Mao,
 N. Mardirossian,  P. Pokhilko,  A. White,  M. Wormit,  M. P. Coons,
 A. L. Dempwolff,  Zhengting Gan,  D. Hait,  P. R. Horn,  L. D. Jacobson,
 I. Kaliman,  J. Kussmann,  A. W. Lange,  Ka Un Lao,  D. S. Levine,  Jie Liu,
 S. C. McKenzie,  A. F. Morrison,  K. Nanda,  F. Plasser,  D. R. Rehn,
 M. L. Vidal,  Zhi-Qiang You,  Ying Zhu,  B. Alam,  B. Albrecht,
 A. Aldossary,  E. Alguire,  J. H. Andersen,  D. Barton,  K. Begam,  A. Behn,
 Y. A. Bernard,  E. J. Berquist,  H. Burton,  A. Carreras,  K. Carter-Fenk,
 R. Chakraborty,  A. D. Chien,  K. D. Closser,  V. Cofer-Shabica,
 S. Dasgupta,  Jia Deng,  M. de Wergifosse,  M. Diedenhofen,  Hainam Do,
 S. Ehlert,  Po-Tung Fang,  S. Fatehi,  Qingguo Feng,  T. Friedhoff,
 J. Gayvert,  Qinghui Ge,  G. Gidofalvi,  M. Goldey,  J. Gomes,
 C. Gonzalez-Espinoza,  S. Gulania,  A. Gunina,  M. W. D. Hanson-Heine,
 P. H. P. Harbach,  A. W. Hauser,  M. F. Herbst,  M. Hernandez Vera,
 M. Hodecker,  Z. C. Holden,  S. Houck,  Xunkun Huang,  Kerwin Hui,
 B. C. Huynh,  M. Ivanov,  Hyunjun Ji,  Hanjie Jiang,  B. Kaduk,  S. Kaehler,
 K. Khistyaev,  Jaehoon Kim,  P. Klunzinger,  Z. Koczor-Benda,
 Joong Hoon Koh,  D. Kosenkov,  L. Koulias,  T. Kowalczyk,  C. M. Krauter,
 K. Kue,  A. Kunitsa,  T. Kus,  A. Landau,  K. V. Lawler,  D. Lefrancois,
 S. Lehtola,  Rain Li,  Yi-Pei Li,  Jiashu Liang,  M. Liebenthal,
 Hung-Hsuan Lin,  You-Sheng Lin,  Fenglai Liu,  Kuan-Yu Liu,
 M. Loipersberger,  A. Luenser,  A. Manjanath,  P. Manohar,  E. Mansoor,
 S. F. Manzer,  Shan-Ping Mao,  A. V. Marenich,  T. Markovich,  S. Mason,
 S. A. Maurer,  P. F. McLaughlin,  M. F. S. J. Menger,  J.-M. Mewes,
 S. A. Mewes,  P. Morgante,  J. W. Mullinax,  K. J. Oosterbaan,  G. Paran,
 Alexander C. Paul,  Suranjan K. Paul,  F. Pavosevic,  Zheng Pei,  S. Prager,
 E. I. Proynov,  E. Ramos,  B. Rana,  A. E. Rask,  A. Rettig,  R. M. Richard,
 F. Rob,  E. Rossomme,  T. Scheele,  M. Scheurer,  M. Schneider,
 N. Sergueev,  S. M. Sharada,  W. Skomorowski,  D. W. Small,  C. J. Stein,
 Yu-Chuan Su,  E. J. Sundstrom,  Zhen Tao,  J. Thirman,  T. Tsuchimochi,
 N. M. Tubman,  S. P. Veccham,  O. Vydrov,  J. Wenzel,  J. Witte,  A. Yamada,
 Kun Yao,  S. Yeganeh,  S. R. Yost,  A. Zech,  Igor Ying Zhang,  Xing Zhang,
 Yu Zhang,  D. Zuev,  A. Aspuru-Guzik,  A. T. Bell,  N. A. Besley,
 K. B. Bravaya,  B. R. Brooks,  D. Casanova,  Jeng-Da Chai,  S. Coriani,
 C. J. Cramer,  A. E. DePrince, III,  R. A. DiStasio Jr.,  A. Dreuw,
 B. D. Dunietz,  T. R. Furlani,  W. A. Goddard III,  S. Grimme,
 S. Hammes-Schiffer,  T. Head-Gordon,  W. J. Hehre,  Chao-Ping Hsu,
 T.-C. Jagau,  Yousung Jung,  A. Klamt,  Jing Kong,  D. S. Lambrecht,
 WanZhen Liang,  N. J. Mayhall,  C. W. McCurdy,  J. B. Neaton,
 C. Ochsenfeld,  J. A. Parkhill,  R. Peverati,  V. A. Rassolov,  Yihan Shao,
 L. V. Slipchenko,  T. Stauch,  R. P. Steele,  J. E. Subotnik,
 A. J. W. Thom,  A. Tkatchenko,  D. G. Truhlar,  T. Van Voorhis,
 T. A. Wesolowski,  K. B. Whaley,  H. L. Woodcock III,  P. M. Zimmerman,
 S. Faraji,  P. M. W. Gill,  M. Head-Gordon,  J. M. Herbert,  A. I. Krylov

 Additional authors for Version 5.4.1:
 S. Kotaru,  Shaozhi Li,  Xiangyuan Li,  F. Matz,  A. Molle,  Haisheng Ren,
 Yingli Su,  Hung-Yi Tsai,  C. Utku,  Fang Wang

 Contributors to earlier versions of Q-Chem not listed above:
 R. D. Adamson,  B. Austin,  R. Baer,  J. Baker,  G. J. O. Beran,
 K. Brandhorst,  S. T. Brown,  E. F. C. Byrd,  A. K. Chakraborty,
 G. K. L. Chan,  Chun-Min Chang,  Yunqing Chen,  C.-L. Cheng,
 Siu Hung Chien,  D. M. Chipman,  D. L. Crittenden,  H. Dachsel,
 R. J. Doerksen,  A. D. Dutoi,  R. G. Edgar,  J. Fosso-Tande,
 L. Fusti-Molnar,  D. Ghosh,  A. Ghysels,  A. Golubeva-Zadorozhnaya,
 J. Gonthier,  M. S. Gordon,  S. R. Gwaltney,  G. Hawkins,  J. E. Herr,
 A. Heyden,  S. Hirata,  E. G. Hohenstein,  G. Kedziora,  F. J. Keil,
 C. Kelley,  Jihan Kim,  R. A. King,  R. Z. Khaliullin,  P. P. Korambath,
 W. Kurlancheek,  A. Laurent,  A. M. Lee,  M. S. Lee,  S. V. Levchenko,
 Ching Yeh Lin,  D. Liotard,  E. Livshits,  R. C. Lochan,  I. Lotan,
 L. A. Martinez-Martinez,  P. E. Maslen,  N. Nair,  D. P. O'Neill,
 D. Neuhauser,  E. Neuscamman,  C. M. Oana,  R. Olivares-Amaya,  R. Olson,
 T. M. Perrine,  B. Peters,  P. A. Pieniazek,  A. Prociuk,  Y. M. Rhee,
 J. Ritchie,  M. A. Rohrdanz,  E. Rosta,  N. J. Russ,  H. F. Schaefer III,
 M. W. Schmidt,  N. E. Schultz,  S. Sharma,  N. Shenvi,  C. D. Sherrill,
 A. C. Simmonett,  A. Sodt,  T. Stein,  D. Stuck,  K. S. Thanthiriwatte,
 V. Vanovschi,  L. Vogt,  Tao Wang,  A. Warshel,  M. A. Watson,
 C. F. Williams,  Q. Wu,  X. Xu,  Jun Yang,  W. Zhang,  Yan Zhao

 Please cite Q-Chem as follows:
 Y. Shao et al., Mol. Phys. 113, 184-215 (2015)
 DOI: 10.1080/00268976.2014.952696

 Q-Chem 5.4.1 for Intel X86 EM64T Linux

 Parts of Q-Chem use Armadillo 9.900.5 (Nocturnal Misbehaviour).
 http://arma.sourceforge.net/

 Q-Chem begins on Wed Jun  1 23:30:39 2022

 Host: p09r14n13.grace.hpc.yale.internal
0

     Scratch files written to /home/tl686/scratch60/qchem_dev/scratch/qchem244094//
 Processing $rem in /home/tl686/qchem_dev/qchem/config/preferences:
 Processing $rem in /home/tl686/.qchemrc:
Applying user defined connections for MM calculations
The previous job contains 0 fragments, simply inherited here

 Checking the input file for inconsistencies... 	...done.

--------------------------------------------------------------
User input:
--------------------------------------------------------------

$molecule
READ
$end

$qm_atoms
1:11
$end

$force_field_params
NumAtomTypes 3
AtomType -1   0.0238     3.11   0.2868
AtomType -2   0.07124    3.30   0.6597
AtomType -3  -0.0760     3.09   0.1434
$end

$rem
     JOBTYPE  freq
     METHOD   bp86
     BASIS    def2-msvp
     MAX_SCF_CYCLES   800
     INPUT_BOHR TRUE
     SYM_IGNORE TRUE
     SCF_GUESS     read
     user_connect            true
     qm_mm_interface         ONIOM
     force_field             oplsaa
$end

--------------------------------------------------------------

    2   -1830.5166925486      4.39E-09 Convergence criterion met
 Total energy in the final basis set = -1828.24103400

                    Orbital Energies (a.u.)
 --------------------------------------------------------------

 Alpha MOs
 -- Occupied --
******** -29.6414 -25.5991 -25.5917 -25.5829 -18.8880 -18.8839 -18.8837
-18.8826 -18.8639 -10.0562 -10.0553 -10.0546 -10.0495 -10.0376  -3.3283
 -2.1617  -2.1461  -2.1286  -1.0673  -1.0642  -1.0542  -1.0489  -1.0147
 -0.5830  -0.5290  -0.5281  -0.5180  -0.5132  -0.4590  -0.4533  -0.4454
 -0.4407  -0.4356  -0.4340  -0.4270  -0.4248  -0.4151  -0.4100  -0.4024
 -0.3966  -0.3943  -0.3913  -0.3833  -0.2896  -0.2713  -0.2479  -0.2247

          Ground-State Mulliken Net Atomic Charges

     Atom                 Charge (a.u.)
  ----------------------------------------
      1 Fe                   -0.492353
      2 C                     0.199454
      3 C                     0.202721
      4 C                     0.217805
      5 C                     0.260103
      6 C                     0.212194
      7 O                    -0.120480
      8 O                    -0.124289
      9 O                    -0.097814
     10 O                    -0.160102
     11 O                    -0.097239
  ----------------------------------------
  Sum of atomic charges =     0.000000

                    Cartesian Multipole Moments
 -----------------------------------------------------------------
    Charge (ESU x 10^10)
                -0.0000
    Dipole Moment (Debye)
         X       0.6272187922      Y      -0.2348814119      Z      -0.1014762700
       Tot       0.6773995308
    Quadrupole Moments (Debye-Ang)
        XX    -491.2444     XY      63.0986     YY     -57.6613
        XZ      24.5020     YZ       5.6510     ZZ     -65.5862

 Frequency:       -75.95                 -61.92                  40.07
 Force Cnst:      0.0538                 0.0370                 0.0147
 Red. Mass:      15.8337                16.3812                15.5488
 IR Intens:        0.000                  0.000                  0.000
 Frequency:        84.93                  96.00                 134.55
 Force Cnst:      0.0676                 0.0868                 0.1866
 Red. Mass:      15.9082                15.9826                17.4911
 IR Intens:        0.000                  0.000                  0.000
 Frequency:       139.85                 336.50                 349.53
 Force Cnst:      0.1845                 0.8610                 0.9112
 Red. Mass:      16.0136                12.9061                12.6589
 IR Intens:        0.000                  0.000                  0.000
 Frequency:       359.53                 422.51                 423.85
 Force Cnst:      0.9927                 1.3701                 1.5154
 Red. Mass:      13.0349                13.0262                14.3170
 IR Intens:        0.000                  0.000                  0.000
 Frequency:       481.99                 506.05                 517.63
 Force Cnst:      1.9480                 2.0553                 2.2303
 Red. Mass:      14.2323                13.6224                14.1278
 IR Intens:        0.000                  0.000                  0.000
 Frequency:       539.12                 551.57                 567.07
 Force Cnst:      2.4452                 2.2367                 2.4860
 Red. Mass:      14.2785                12.4785                13.1214
 IR Intens:        0.000                  0.000                  0.000
 Frequency:       600.43                 659.70                 674.75
 Force Cnst:      2.8436                 4.9638                 4.4536
 Red. Mass:      13.3876                19.3585                16.6028
 IR Intens:        0.000                  0.000                  0.000
 Frequency:       698.57                1777.57                1937.90
 Force Cnst:      5.2376                24.6173                29.4344
 Red. Mass:      18.2163                13.2232                13.3027
 IR Intens:        0.000                  0.000                  0.000
 Frequency:      2013.41                2081.96                2196.87
 Force Cnst:     31.6628                34.0992                37.8053
 Red. Mass:      13.2567                13.3520                13.2951
 IR Intens:        0.000                  0.000                  0.000

 STANDARD THERMODYNAMIC QUANTITIES AT   298.15 K  AND     1.00 ATM

   This Molecule has  2 Imaginary Frequencies
   Zero point vibrational energy:       26.007 kcal/mol

   Atom    1 Element Fe Has Mass   55.93490
   Atom    2 Element C  Has Mass   12.00000
   Atom    3 Element C  Has Mass   12.00000
   Atom    4 Element C  Has Mass   12.00000
   Atom    5 Element C  Has Mass   12.00000
   Atom    6 Element C  Has Mass   12.00000
   Atom    7 Element O  Has Mass   15.99491
   Atom    8 Element O  Has Mass   15.99491
   Atom    9 Element O  Has Mass   15.99491
   Atom   10 Element O  Has Mass   15.99491
   Atom   11 Element O  Has Mass   15.99491
   Molecular Mass:   195.909450 amu
   Principal axes and moments of inertia in amu*Bohr^2:
                             1           2           3
    Eigenvalues --     1935.30432  2024.01718  2359.10144
          X               0.23325     0.49198     0.83878
          Y               0.91698    -0.39836    -0.02134
          Z               0.32363     0.77412    -0.54406
   Rotational Symmetry Number is   1
   The Molecule is an Asymmetric Top
   Translational Enthalpy:        0.889 kcal/mol
   Rotational Enthalpy:           0.889 kcal/mol
   Vibrational Enthalpy:         30.475 kcal/mol
   gas constant (RT):             0.592 kcal/mol
   Translational Entropy:        41.722  cal/mol.K
   Rotational Entropy:           30.603  cal/mol.K
   Vibrational Entropy:          28.574  cal/mol.K

   Total Enthalpy:               32.845 kcal/mol
   Total Entropy:               100.899  cal/mol.K

 Total job time:  126.93s(wall), 250.74s(cpu)
        *  Thank you very much for using Q-Chem.  Have a nice day.  *
