 Q-Chem 5.4 (devel), Q-Chem, Inc., Pleasanton, CA (2021)
 Q-Chem 5.4.1 for Intel X86 EM64T Linux

User input:
--------------------------------------------------------------
$molecule
0   1
 Fe 74.32866411 33.86419690 -43.42774885    -1  0   0   0   0
C 72.79730098 33.64983453 -40.35898763    -2  0   0   0   0
C 74.09842772 37.02353959 -44.79526531    -2  0   0   0   0
C 77.54338403 34.73909248 -42.10004701    -2  0   0   0   0
C 75.60466290 31.22313420 -44.98622642    -2  0   0   0   0
C 71.09750919 33.16715369 -44.71305841    -2  0   0   0   0
O 72.05185559 33.75755529 -38.28700109    -3  0   0   0   0
O 73.65534045 38.90778426 -45.70313986    -3  0   0   0   0
O 79.48177678 34.96953338 -41.22617865    -3  0   0   0   0
O 76.58639672 29.33471977 -45.82632913    -3  0   0   0   0
O 69.28343618 32.57690261 -45.78169413    -3  0   0   0   0
H 77.49940837 19.72693417 -18.49124042      6     13    0    0    0
C 77.03263950 21.43957502 -19.66623944     1     12    14    15    16
H 76.32706376 22.60352015 -18.13562108     6     13    0    0    0
H 78.90349990 22.19970732 -20.31348032     6     13    0    0    0
C 75.27131291 20.69645848 -21.70449739     2     13    17    18    19
H 73.62540415 19.69779008 -20.89181251     6     16    0    0    0
H 74.71053184 22.44322278 -22.65288169     6     16    0    0    0
C 76.60730441 18.88397312 -23.44485730     2     16    20   21   22
H 78.25634959 19.84199942 -24.13002740     6     19    0    0    0
H 77.41065456 17.37534380 -22.18192912     6     19    0    0    0
C 74.94499912 18.11899720 -25.71694044     2     19   23   24   25
H 73.37258761 17.04735845 -24.90838675     6    22    0    0    0
H 74.15845204 19.79486324 -26.66706159     6    22    0    0    0
C 76.50637355 16.28627764 -27.41109550     2    22   26   27   28
H 78.05276124 17.29659213 -28.30182177     6    25    0    0    0
H 77.48873800 14.87907391 -26.13325190     6    25    0    0    0
C 74.90476668 15.08311098 -29.53581322     2    25   29   30   31
H 73.48770516 13.91057854 -28.75962275     6    28    0    0    0
H 73.76064636 16.53524359 -30.37215177     6    28    0    0    0
C 76.49555250 13.91384428 -31.64571211     2    28   32   33   34
H 77.66634543 15.30166075 -32.48201001     6    31    0    0    0
H 77.66843759 12.32106100 -30.99153735     6    31    0    0    0
C 74.52483347 13.10310837 -33.67607080     2    31   35   36   37
H 72.98019798 12.22155961 -32.70322145     6    34    0    0    0
H 73.50723037 14.80457799 -34.46997024     6    34    0    0    0
C 75.64433553 11.65996153 -35.81483428     2    34   38   39   40
H 76.13423141 12.84541735 -37.38551791     6    37    0    0    0
H 77.39209628 10.98322085 -35.23843392     6    37    0    0    0
C 74.00698316 9.36501909 -36.76863900     2    37   41   42   43
H 73.48711649 7.92088528 -35.25661968     6    40    0    0    0
H 72.08046756 10.07135457 -37.32494602     6    40    0    0    0
C 74.79908820 7.95018175 -39.15065662     2    40   44   45   46
H 74.48298981 9.03633655 -40.88343945     6    43    0    0    0
H 76.83487441 7.55547304 -38.85784635     6    43    0    0    0
C 73.15570220 5.35325297 -39.20418653     1    43   47   48   49
H 73.52450924 4.62779519 -37.16009001     6    46    0    0    0
H 73.63165074 3.91287816 -40.56542712     6    46    0    0    0
H 71.20555897 5.82789055 -39.55702354     6    46    0    0    0
H 67.45821423 24.38976485 -42.22111891     6     51    0    0    0
C 68.34405393 26.24842871 -42.17377469     1     50    52    53    54
H 68.90155876 27.11773773 -44.06182812     6     51    0    0    0
H 66.63637387 27.28862952 -41.55641867     6     51    0    0    0
C 70.11340686 26.58820858 -39.94914061     2     51    55    56    57
H 70.36286130 28.73383702 -39.79274377     6     54    0    0    0
H 69.10905389 26.04633091 -38.13322696     6     54    0    0    0
C 72.73104874 25.23673997 -40.17674573     2     54    58   59   60
H 74.03188457 26.15719018 -41.49986387     6     57    0    0    0
H 73.71195285 25.17948861 -38.41170083     6     57    0    0    0
C 72.28536963 22.45881057 -41.07756853     2     57   61   62   63
H 70.67936340 21.63387836 -40.05676574     6    60    0    0    0
H 72.01023028 22.49506609 -43.20255371     6    60    0    0    0
C 74.68535033 20.84848888 -40.71274718     2    60   64   65   66
H 76.21413880 21.70812389 -41.76599331     6    63    0    0    0
H 75.04885936 20.83181097 -38.82078333     6    63    0    0    0
C 74.11349337 18.04950843 -41.29202518     2    63   67   68   69
H 75.76317653 17.04289618 -40.70135847     6    66    0    0    0
H 72.46762725 17.41194268 -40.01916187     6    66    0    0    0
C 73.43154450 17.42489871 -44.08635861     2    66   70   71   72
H 71.54344598 18.11921345 -44.52994877     6    69    0    0    0
H 74.74354374 18.45736121 -45.21023803     6    69    0    0    0
C 73.43354310 14.58212059 -44.77650633     2    69   73   74   75
H 75.33491912 13.92075176 -44.56430306     6    72    0    0    0
H 72.45400884 13.50835602 -43.33108583     6    72    0    0    0
C 72.53439321 14.29453750 -47.45089053     2    72   76   77   78
H 70.75744731 15.19522966 -47.97595310     6    75    0    0    0
H 73.83819534 15.21795714 -48.73000099     6    75    0    0    0
C 72.23456218 11.47554619 -48.20440589     2    75   79   80   81
H 74.15450217 10.55798758 -48.01787004     6    78    0    0    0
H 70.94655001 10.50433820 -46.82332904     6    78    0    0    0
C 71.20170647 11.27047239 -50.93554787     2    78   82   83   84
H 69.53108721 12.49636194 -51.17853836     6    81    0    0    0
H 72.57251289 11.98763731 -52.20787586     6    81    0    0    0
C 70.40115408 8.51997340 -51.46583492     1    81   85   86   87
H 70.18614276 8.22564002 -53.43600617     6    84    0    0    0
H 68.60713651 7.82094551 -50.72912133     6    84    0    0    0
H 71.92396851 7.18772609 -51.12191921     6    84    0    0    0
H 97.30256160 13.04164076 -27.69458115     6     89    0    0    0
C 96.32020059 11.24956120 -27.12180242     1     88    90    91    92
H 97.71268932 10.12775503 -26.01312507     6     89    0    0    0
H 94.75461938 11.89443438 -25.99800175     6     89    0    0    0
C 95.59135771 9.65282486 -29.29068088     2     89    93    94    95
H 94.34418380 10.77641574 -30.59311497     6     92    0    0    0
H 97.20364293 9.45347086 -30.57091535     6     92    0    0    0
C 94.57250699 6.99118104 -28.76317471     2     92    96   97   98
H 96.10791276 5.80017082 -27.78551757     6     95    0    0    0
H 92.97091833 7.18739281 -27.49399351     6     95    0    0    0
C 93.42387244 5.62559095 -31.03508908     2     95   99   100   101
H 91.38522017 6.10632331 -31.08842051     6    98    0    0    0
H 94.06649427 6.32180027 -32.82605034     6    98    0    0    0
C 93.35301580 2.78318720 -30.81381751     2    98   102   103   104
H 95.36237632 2.37891473 -30.53564787     6    101    0    0    0
H 92.84714323 2.26666367 -28.87798181     6    101    0    0    0
C 91.96757345 0.95965683 -32.73987986     2    101   105   106   107
H 91.55646610 1.93603435 -34.48209416     6    104    0    0    0
H 93.15633941 -0.72974239 -33.30010343     6    104    0    0    0
C 89.45142283 -0.07640820 -31.86254447     2    104   108   109   110
H 89.89112862 -1.14428840 -30.14764457     6    107    0    0    0
H 88.38181103 1.65653393 -31.39633457     6    107    0    0    0
C 88.41845546 -2.30299162 -33.64914157     2    107   111   112   113
H 88.15272869 -1.62511769 -35.54112061     6    110    0    0    0
H 89.84649578 -3.74557485 -33.97867699     6    110    0    0    0
C 86.05475340 -3.51667988 -32.53181463     2    110   114   115   116
H 86.24881161 -4.33936948 -30.60504398     6    113    0    0    0
H 84.50045347 -2.14499548 -32.53471006     6    113    0    0    0
C 85.01916887 -5.70198646 -34.15328878     2    113   117   118   119
H 84.90664888 -5.19263400 -36.19190625     6    116    0    0    0
H 86.62640476 -7.13093699 -34.22516786     6    116    0    0    0
C 82.50509367 -7.01428226 -33.29325023     2    116   120   121   122
H 82.73410579 -7.63968734 -31.28791527     6    119    0    0    0
H 81.04114619 -5.69012805 -33.39122307     6    119    0    0    0
C 81.65906129 -9.17340950 -35.06955745     1    119   123   124   125
H 79.76296924 -9.79232575 -34.65149042     6    122    0    0    0
H 82.84231551 -10.77400396 -35.17880278     6    122    0    0    0
H 81.48901949 -8.38797149 -36.91860767     6    122    0    0    0
H 107.07067386 26.28492736 -31.90004568     6     127    0    0    0
C 106.23164415 25.90979127 -33.84362155     1     126    128    129    130
H 107.66546771 26.50132619 -35.22747921     6     127    0    0    0
H 105.93893874 23.92709508 -33.87529251     6     127    0    0    0
C 103.85666089 27.44360564 -34.17949407     2     127    131    132    133
H 102.32914006 27.03292920 -32.81262808     6     130    0    0    0
H 104.08880741 29.39787576 -34.09201229     6     130    0    0    0
C 102.74512998 27.17472027 -36.82612296     2     130    134   135   136
H 104.28758672 27.57165442 -38.17704443     6     133    0    0    0
H 102.23539622 25.27807333 -37.23538047     6     133    0    0    0
C 100.46678956 29.00599330 -37.11731673     2     133   137   138   139
H 98.78840888 28.47294435 -36.05487798     6    136    0    0    0
H 101.12278748 30.84806876 -36.40039108     6    136    0    0    0
C 99.68949236 28.93031613 -39.86563361     2    136   140   141   142
H 101.07825618 29.02910277 -41.27378002     6    139    0    0    0
H 99.07653582 27.11272631 -40.42296310     6    139    0    0    0
C 97.59887136 30.82038795 -40.41717886     2    139   143   144   145
H 96.19878159 30.62696848 -39.00931846     6    142    0    0    0
H 98.46386087 32.59922184 -40.29625790     6    142    0    0    0
C 96.43783576 30.83188359 -42.90099332     2    142   146   147   148
H 97.69571227 31.70880337 -44.29107056     6    145    0    0    0
H 96.01324756 28.92126978 -43.43683307     6    145    0    0    0
C 94.09812591 32.56841316 -43.17876660     2    145   149   150   151
H 92.70862716 32.33358691 -41.60113647     6    148    0    0    0
H 94.87608926 34.51000878 -42.98363447     6    148    0    0    0
C 92.82835492 32.36125331 -45.74414956     2    148   152   153   154
H 94.21670052 32.13307167 -47.31544942     6    151    0    0    0
H 91.64975229 30.68292052 -45.78939058     6    151    0    0    0
C 91.11516955 34.58538536 -46.30124222     2    151   155   156   157
H 89.85627883 34.18919081 -47.91861689     6    154    0    0    0
H 89.87332349 34.87769563 -44.65346285     6    154    0    0    0
C 92.55515324 36.78703158 -47.18267710     2    154   158   159   160
H 94.15857244 37.31131556 -45.93372334     6    157    0    0    0
H 93.35037888 36.20962748 -49.01959390     6    157    0    0    0
C 90.91742668 39.02142134 -47.94898710     1    157   161   162   163
H 92.13821974 40.73606329 -48.39674838     6    160    0    0    0
H 89.68089338 39.36383769 -46.49092541     6    160    0    0    0
H 89.71356591 38.51110092 -49.54416797     6    160    0    0    0
H 99.17518426 2.81033398 -47.34950376     6     165    0    0    0
C 99.71049655 4.38006203 -46.05177277     1     164    166    167    168
H 98.38842951 4.56892682 -44.47940424     6     165    0    0    0
H 101.53148110 3.86909655 -45.02683634     6     165    0    0    0
C 99.99273315 6.98294970 -47.28178855     2     165    169    170    171
H 101.44948248 6.95921252 -48.69599611     6     168    0    0    0
H 98.33455727 7.66688949 -48.20069567     6     168    0    0    0
C 100.63753148 9.11758203 -45.47455160     2     168    172   173   174
H 98.77239765 9.46539078 -44.65879770     6     171    0    0    0
H 102.10176421 8.64374736 -44.08436635     6     171    0    0    0
C 101.56906761 11.61747223 -46.78467107     2     171   175   176   177
H 103.31259127 11.19261397 -47.83466946     6    174    0    0    0
H 100.20338597 12.35079511 -48.18971007     6    174    0    0    0
C 102.05947734 13.63950693 -44.89213294     2    174   178   179   180
H 100.23393050 13.85456090 -43.79209035     6    177    0    0    0
H 103.38557992 12.82210223 -43.66679083     6    177    0    0    0
C 103.19466768 16.03196405 -46.14238466     2    177   181   182   183
H 105.14166266 15.62366268 -46.90788180     6    180    0    0    0
H 102.18699602 16.50427763 -47.85117478     6    180    0    0    0
C 103.29936240 18.38100209 -44.43755222     2    180   184   185   186
H 101.57498947 19.41132275 -44.59577461     6    183    0    0    0
H 103.68516983 17.61425964 -42.61789684     6    183    0    0    0
C 105.14411832 20.28053009 -45.47498068     2    183   187   188   189
H 107.06957174 19.58190729 -45.59849514     6    186    0    0    0
H 104.72737081 20.71878522 -47.49334882     6    186    0    0    0
C 105.00337146 22.81195050 -43.82724726     2    186   190   191   192
H 103.02221876 23.05932972 -43.11718987     6    189    0    0    0
H 106.29930911 22.32292521 -42.15813056     6    189    0    0    0
C 105.89579983 25.09415787 -45.46479996     2    189   193   194   195
H 107.83158314 24.72655919 -46.27664933     6    192    0    0    0
H 104.70760955 25.17893870 -47.21952565     6    192    0    0    0
C 105.92845913 27.57219917 -43.91890962     2    192   196   197   198
H 104.07948997 28.24719669 -43.58135896     6    195    0    0    0
H 106.71122059 27.23087607 -42.08954597     6    195    0    0    0
C 107.37679570 29.85843073 -45.06736537     1    195   199   200   201
H 107.88107127 31.17529623 -43.53118051     6    198    0    0    0
H 106.50835806 31.08780999 -46.50838678     6    198    0    0    0
H 109.24410030 29.35290395 -45.89407176     6    198    0    0    0
H 93.85029711 14.09242598 -58.46138497     6     203    0    0    0
C 95.42841383 13.75300993 -59.62030293     1     202    204    205    206
H 96.00280953 15.34220704 -60.64211453     6     203    0    0    0
H 96.80193708 13.49560887 -58.21598469     6     203    0    0    0
C 95.16254816 11.40846655 -61.22514623     2     203    207    208    209
H 97.01996895 11.22429734 -62.09800338     6     206    0    0    0
H 94.87514023 9.82452592 -59.88301535     6     206    0    0    0
C 92.91217229 11.22194487 -63.01022594     2     206    210   211   212
H 93.10639797 9.41451318 -63.80375785     6     209    0    0    0
H 91.10910791 11.30187717 -61.93602670     6     209    0    0    0
C 92.53832589 13.45399387 -64.89653920     2     209   213   214   215
H 92.97326729 15.27797763 -63.88232450     6    212    0    0    0
H 94.12392769 13.25354182 -66.38057252     6    212    0    0    0
C 89.97586588 13.63025878 -66.25617597     2    212   216   217   218
H 89.85035483 12.08951012 -67.52717616     6    215    0    0    0
H 88.38308361 13.48150762 -64.94321577     6    215    0    0    0
C 89.93519910 16.09891585 -67.72877304     2    215   219   220   221
H 89.79115413 17.75517860 -66.45801888     6    218    0    0    0
H 91.69292524 16.36321881 -68.81079315     6    218    0    0    0
C 87.73448355 16.29358538 -69.41141218     2    218   222   223   224
H 87.62055231 14.65649841 -70.62607341     6    221    0    0    0
H 86.03077202 16.13138997 -68.27405857     6    221    0    0    0
C 87.88479971 18.66517925 -71.17598427     2    221   225   226   227
H 88.91868464 20.12446933 -69.98814224     6    224    0    0    0
H 88.98944974 17.97660729 -72.81173815     6    224    0    0    0
C 85.25313152 19.53346231 -72.23815423     2    224   228   229   230
H 84.31144627 17.89482353 -73.10917448     6    227    0    0    0
H 83.92858772 20.13937285 -70.71161021     6    227    0    0    0
C 85.44418016 21.61597871 -74.32998398     2    227   231   232   233
H 86.49807773 23.25663535 -73.59707388     6    230    0    0    0
H 86.33517323 20.83779068 -76.00909526     6    230    0    0    0
C 83.00787354 22.90548082 -75.27925311     2    230   234   235   236
H 81.88459342 21.34655845 -76.15267585     6    233    0    0    0
H 81.80968266 23.10604536 -73.52272396     6    233    0    0    0
C 83.40440512 25.23814663 -77.02168101     1    233   237   238   239
H 81.59504535 25.76246064 -77.90365068     6    236    0    0    0
H 84.88586171 24.96917522 -78.37402625     6    236    0    0    0
H 83.95405225 26.85687391 -75.84429595     6    236    0    0    0
H 64.81759848 0.29197191 -50.88560866     6     241    0    0    0
C 66.22938681 1.48866027 -51.76172930     1     240    242    243    244
H 66.36726018 0.56180764 -53.56927358     6     241    0    0    0
H 65.57688589 3.41832829 -52.00596028     6     241    0    0    0
C 68.73675645 1.61503950 -50.52767557     2     241    245    246    247
H 69.67837992 -0.31305210 -50.36189490     6     244    0    0    0
H 69.96249044 2.75447543 -51.64984177     6     244    0    0    0
C 68.48448699 2.92939638 -47.98101474     2     244    248   249   250
H 70.37625773 3.80617839 -47.62128689     6     247    0    0    0
H 67.17863621 4.57651120 -48.30779913     6     247    0    0    0
C 67.58960252 1.36999270 -45.75386027     2     247   251   252   253
H 67.33848247 2.54193114 -44.14024988     6    250    0    0    0
H 65.75580532 0.62830006 -46.35272857     6    250    0    0    0
C 69.49337193 -0.76123504 -44.92770358     2    250   254   255   256
H 69.61076214 -2.45227315 -46.29882600     6    253    0    0    0
H 71.31707868 0.00217506 -44.84692157     6    253    0    0    0
C 68.87667891 -1.89071611 -42.31794863     2    253   257   258   259
H 69.76557632 -3.75836382 -42.14914898     6    256    0    0    0
H 69.78333758 -0.64878336 -40.90198684     6    256    0    0    0
C 66.02218393 -2.34869546 -41.96760740     2    256   260   261   262
H 65.12622332 -0.51381354 -41.62295164     6    259    0    0    0
H 65.38159955 -3.16121420 -43.75788240     6    259    0    0    0
C 65.05315112 -3.95832473 -39.75120270     2    259   263   264   265
H 65.82462984 -5.93470950 -39.67239892     6    262    0    0    0
H 65.80119934 -3.04064352 -37.96086875     6    262    0    0    0
C 62.02268192 -4.36151710 -39.76305916     2    262   266   267   268
H 61.74359323 -5.22992934 -37.96492229     6    265    0    0    0
H 61.15192670 -2.41014185 -39.91121880     6    265    0    0    0
C 61.09845297 -6.04477162 -42.00951435     2    265   269   270   271
H 61.56698005 -5.37662875 -43.79295749     6    268    0    0    0
H 62.14395778 -7.86963643 -41.90642962     6    268    0    0    0
C 58.16395935 -6.54267355 -42.02586772     2    268   272   273   274
H 57.75991722 -7.07314962 -40.04435527     6    271    0    0    0
H 57.34059447 -4.63536662 -42.06685769     6    271    0    0    0
C 57.59149737 -8.13898694 -44.33341556     1    271   275   276   277
H 58.26534468 -7.43170229 -46.20783578     6    274    0    0    0
H 55.61631044 -8.20605093 -44.51472649     6    274    0    0    0
H 58.55026325 -9.94316742 -43.88743213     6    274    0    0    0
H 87.33820305 4.48777033 -51.23355463     6     279    0    0    0
C 86.85656904 5.45212672 -52.91313120     1     278    280    281    282
H 86.86614634 7.42909544 -52.24736642     6     279    0    0    0
H 88.66875536 5.25390750 -53.83625091     6     279    0    0    0
C 84.77882963 4.39180900 -54.47551621     2     279    283    284    285
H 84.78561030 2.31331107 -54.72826237     6     282    0    0    0
H 83.10611881 4.81781641 -53.35863626     6     282    0    0    0
C 84.29768296 5.86948783 -57.08139898     2     282    286   287   288
H 83.80358491 7.79388377 -56.83920109     6     285    0    0    0
H 86.07858374 5.77122695 -57.95404297     6     285    0    0    0
C 82.62918718 4.41197766 -59.17003588     2     285   289   290   291
H 83.95178413 2.98577570 -60.08964287     6    288    0    0    0
H 80.94145030 3.53116124 -58.12497245     6    288    0    0    0
C 81.88986677 6.10158069 -61.30445511     2    288   292   293   294
H 81.28570170 7.82660554 -60.45480549     6    291    0    0    0
H 83.33631907 6.52698070 -62.64977691     6    291    0    0    0
C 79.65921187 4.75139732 -62.70469456     2    291   295   296   297
H 80.09898558 3.05257774 -63.67641856     6    294    0    0    0
H 78.31743279 4.22212249 -61.16539609     6    294    0    0    0
C 78.06767184 6.53988908 -64.31917561     2    294   298   299   300

   18   -1830.5099447072      1.80E-09 Convergence criterion met
 Total energy in the final basis set = -1828.27278438
 Total job time:  16.46s(wall), 29.51s(cpu)
        *  Thank you very much for using Q-Chem.  Have a nice day.  *

User input: 2 of 2

                  Welcome to Q-Chem
     A Quantum Leap Into The Future Of Chemistry

 Q-Chem 5.4 (devel), Q-Chem, Inc., Pleasanton, CA (2021)

 E. Epifanovsky,  A. T. B. Gilbert,  Xintian Feng,  Joonho Lee,  Yuezhi Mao,
 N. Mardirossian,  P. Pokhilko,  A. White,  M. Wormit,  M. P. Coons,
 A. L. Dempwolff,  Zhengting Gan,  D. Hait,  P. R. Horn,  L. D. Jacobson,
 I. Kaliman,  J. Kussmann,  A. W. Lange,  Ka Un Lao,  D. S. Levine,  Jie Liu,
 S. C. McKenzie,  A. F. Morrison,  K. Nanda,  F. Plasser,  D. R. Rehn,
 M. L. Vidal,  Zhi-Qiang You,  Ying Zhu,  B. Alam,  B. Albrecht,
 A. Aldossary,  E. Alguire,  J. H. Andersen,  D. Barton,  K. Begam,  A. Behn,
 Y. A. Bernard,  E. J. Berquist,  H. Burton,  A. Carreras,  K. Carter-Fenk,
 R. Chakraborty,  A. D. Chien,  K. D. Closser,  V. Cofer-Shabica,
 S. Dasgupta,  Jia Deng,  M. de Wergifosse,  M. Diedenhofen,  Hainam Do,
 S. Ehlert,  Po-Tung Fang,  S. Fatehi,  Qingguo Feng,  T. Friedhoff,
 J. Gayvert,  Qinghui Ge,  G. Gidofalvi,  M. Goldey,  J. Gomes,
 C. Gonzalez-Espinoza,  S. Gulania,  A. Gunina,  M. W. D. Hanson-Heine,
 P. H. P. Harbach,  A. W. Hauser,  M. F. Herbst,  M. Hernandez Vera,
 M. Hodecker,  Z. C. Holden,  S. Houck,  Xunkun Huang,  Kerwin Hui,
 B. C. Huynh,  M. Ivanov,  Hyunjun Ji,  Hanjie Jiang,  B. Kaduk,  S. Kaehler,
 K. Khistyaev,  Jaehoon Kim,  P. Klunzinger,  Z. Koczor-Benda,
 Joong Hoon Koh,  D. Kosenkov,  L. Koulias,  T. Kowalczyk,  C. M. Krauter,
 K. Kue,  A. Kunitsa,  T. Kus,  A. Landau,  K. V. Lawler,  D. Lefrancois,
 S. Lehtola,  Rain Li,  Yi-Pei Li,  Jiashu Liang,  M. Liebenthal,
 Hung-Hsuan Lin,  You-Sheng Lin,  Fenglai Liu,  Kuan-Yu Liu,
 M. Loipersberger,  A. Luenser,  A. Manjanath,  P. Manohar,  E. Mansoor,
 S. F. Manzer,  Shan-Ping Mao,  A. V. Marenich,  T. Markovich,  S. Mason,
 S. A. Maurer,  P. F. McLaughlin,  M. F. S. J. Menger,  J.-M. Mewes,
 S. A. Mewes,  P. Morgante,  J. W. Mullinax,  K. J. Oosterbaan,  G. Paran,
 Alexander C. Paul,  Suranjan K. Paul,  F. Pavosevic,  Zheng Pei,  S. Prager,
 E. I. Proynov,  E. Ramos,  B. Rana,  A. E. Rask,  A. Rettig,  R. M. Richard,
 F. Rob,  E. Rossomme,  T. Scheele,  M. Scheurer,  M. Schneider,
 N. Sergueev,  S. M. Sharada,  W. Skomorowski,  D. W. Small,  C. J. Stein,
 Yu-Chuan Su,  E. J. Sundstrom,  Zhen Tao,  J. Thirman,  T. Tsuchimochi,
 N. M. Tubman,  S. P. Veccham,  O. Vydrov,  J. Wenzel,  J. Witte,  A. Yamada,
 Kun Yao,  S. Yeganeh,  S. R. Yost,  A. Zech,  Igor Ying Zhang,  Xing Zhang,
 Yu Zhang,  D. Zuev,  A. Aspuru-Guzik,  A. T. Bell,  N. A. Besley,
 K. B. Bravaya,  B. R. Brooks,  D. Casanova,  Jeng-Da Chai,  S. Coriani,
 C. J. Cramer,  A. E. DePrince, III,  R. A. DiStasio Jr.,  A. Dreuw,
 B. D. Dunietz,  T. R. Furlani,  W. A. Goddard III,  S. Grimme,
 S. Hammes-Schiffer,  T. Head-Gordon,  W. J. Hehre,  Chao-Ping Hsu,
 T.-C. Jagau,  Yousung Jung,  A. Klamt,  Jing Kong,  D. S. Lambrecht,
 WanZhen Liang,  N. J. Mayhall,  C. W. McCurdy,  J. B. Neaton,
 C. Ochsenfeld,  J. A. Parkhill,  R. Peverati,  V. A. Rassolov,  Yihan Shao,
 L. V. Slipchenko,  T. Stauch,  R. P. Steele,  J. E. Subotnik,
 A. J. W. Thom,  A. Tkatchenko,  D. G. Truhlar,  T. Van Voorhis,
 T. A. Wesolowski,  K. B. Whaley,  H. L. Woodcock III,  P. M. Zimmerman,
 S. Faraji,  P. M. W. Gill,  M. Head-Gordon,  J. M. Herbert,  A. I. Krylov

 Additional authors for Version 5.4.1:
 S. Kotaru,  Shaozhi Li,  Xiangyuan Li,  F. Matz,  A. Molle,  Haisheng Ren,
 Yingli Su,  Hung-Yi Tsai,  C. Utku,  Fang Wang

 Contributors to earlier versions of Q-Chem not listed above:
 R. D. Adamson,  B. Austin,  R. Baer,  J. Baker,  G. J. O. Beran,
 K. Brandhorst,  S. T. Brown,  E. F. C. Byrd,  A. K. Chakraborty,
 G. K. L. Chan,  Chun-Min Chang,  Yunqing Chen,  C.-L. Cheng,
 Siu Hung Chien,  D. M. Chipman,  D. L. Crittenden,  H. Dachsel,
 R. J. Doerksen,  A. D. Dutoi,  R. G. Edgar,  J. Fosso-Tande,
 L. Fusti-Molnar,  D. Ghosh,  A. Ghysels,  A. Golubeva-Zadorozhnaya,
 J. Gonthier,  M. S. Gordon,  S. R. Gwaltney,  G. Hawkins,  J. E. Herr,
 A. Heyden,  S. Hirata,  E. G. Hohenstein,  G. Kedziora,  F. J. Keil,
 C. Kelley,  Jihan Kim,  R. A. King,  R. Z. Khaliullin,  P. P. Korambath,
 W. Kurlancheek,  A. Laurent,  A. M. Lee,  M. S. Lee,  S. V. Levchenko,
 Ching Yeh Lin,  D. Liotard,  E. Livshits,  R. C. Lochan,  I. Lotan,
 L. A. Martinez-Martinez,  P. E. Maslen,  N. Nair,  D. P. O'Neill,
 D. Neuhauser,  E. Neuscamman,  C. M. Oana,  R. Olivares-Amaya,  R. Olson,
 T. M. Perrine,  B. Peters,  P. A. Pieniazek,  A. Prociuk,  Y. M. Rhee,
 J. Ritchie,  M. A. Rohrdanz,  E. Rosta,  N. J. Russ,  H. F. Schaefer III,
 M. W. Schmidt,  N. E. Schultz,  S. Sharma,  N. Shenvi,  C. D. Sherrill,
 A. C. Simmonett,  A. Sodt,  T. Stein,  D. Stuck,  K. S. Thanthiriwatte,
 V. Vanovschi,  L. Vogt,  Tao Wang,  A. Warshel,  M. A. Watson,
 C. F. Williams,  Q. Wu,  X. Xu,  Jun Yang,  W. Zhang,  Yan Zhao

 Please cite Q-Chem as follows:
 Y. Shao et al., Mol. Phys. 113, 184-215 (2015)
 DOI: 10.1080/00268976.2014.952696

 Q-Chem 5.4.1 for Intel X86 EM64T Linux

 Parts of Q-Chem use Armadillo 9.900.5 (Nocturnal Misbehaviour).
 http://arma.sourceforge.net/

 Q-Chem begins on Wed Jun 22 08:05:42 2022

 Host: p09r16n04.grace.hpc.yale.internal
0

     Scratch files written to /home/tl686/scratch60/qchem_dev/scratch/qchem69718//
 Processing $rem in /home/tl686/qchem_dev/qchem/config/preferences:
 Processing $rem in /home/tl686/.qchemrc:
Applying user defined connections for MM calculations
The previous job contains 0 fragments, simply inherited here

 Checking the input file for inconsistencies... 	...done.

--------------------------------------------------------------
User input:
--------------------------------------------------------------

$molecule
READ
$end

$qm_atoms
1:11
$end

$force_field_params
NumAtomTypes 3
AtomType -1   0.0238     3.11   0.2868
AtomType -2   0.07124    3.30   0.6597
AtomType -3  -0.0760     3.09   0.1434
$end

$rem
     JOBTYPE  freq
     METHOD   bp86
     BASIS    def2-msvp
     MAX_SCF_CYCLES   800
     INPUT_BOHR TRUE
     SYM_IGNORE TRUE
     SCF_GUESS     read
     user_connect            true
     qm_mm_interface         ONIOM
     force_field             oplsaa
$end

--------------------------------------------------------------

    2   -1830.5099447067      6.61E-09 Convergence criterion met
 Total energy in the final basis set = -1828.27278438

                    Orbital Energies (a.u.)
 --------------------------------------------------------------

 Alpha MOs
 -- Occupied --
******** -29.6320 -25.5923 -25.5776 -25.5770 -18.8978 -18.8966 -18.8806
-18.8731 -18.8544 -10.0644 -10.0580 -10.0392 -10.0390 -10.0283  -3.3150
 -2.1488  -2.1248  -2.1206  -1.0863  -1.0718  -1.0710  -1.0442  -1.0034
 -0.5671  -0.5313  -0.5178  -0.5145  -0.5075  -0.4565  -0.4501  -0.4470
 -0.4431  -0.4406  -0.4355  -0.4294  -0.4182  -0.4124  -0.4104  -0.4059
 -0.3951  -0.3894  -0.3811  -0.3730  -0.2686  -0.2648  -0.2257  -0.2194

          Ground-State Mulliken Net Atomic Charges

     Atom                 Charge (a.u.)
  ----------------------------------------
      1 Fe                   -0.495476
      2 C                     0.213254
      3 C                     0.204992
      4 C                     0.204401
      5 C                     0.196580
      6 C                     0.209281
      7 O                    -0.118435
      8 O                    -0.082519
      9 O                    -0.068323
     10 O                    -0.172377
     11 O                    -0.091380
  ----------------------------------------
  Sum of atomic charges =     0.000000

                    Cartesian Multipole Moments
 -----------------------------------------------------------------
    Charge (ESU x 10^10)
                -0.0000
    Dipole Moment (Debye)
         X      -0.2536423860      Y       1.0242538933      Z       0.1951674102
       Tot       1.0730893792
    Quadrupole Moments (Debye-Ang)
        XX     -87.1696     XY      37.8286     YY     -33.8689
        XZ      14.6635     YZ     -20.9160     ZZ     -79.2124

 Frequency:      -172.02                -166.28                -118.20
 Force Cnst:      0.2819                 0.2675                 0.1316
 Red. Mass:      16.1668                16.4220                15.9863
 IR Intens:        0.000                  0.000                  0.000
 Frequency:      -114.22                  85.06                  93.81
 Force Cnst:      0.1265                 0.0662                 0.0817
 Red. Mass:      16.4561                15.5303                15.7648
 IR Intens:        0.000                  0.000                  0.000
 Frequency:       121.28                 250.60                 265.26
 Force Cnst:      0.1404                 0.4869                 0.5335
 Red. Mass:      16.2048                13.1590                12.8680
 IR Intens:        0.000                  0.000                  0.000
 Frequency:       333.29                 358.88                 382.29
 Force Cnst:      0.8614                 1.0611                 1.1363
 Red. Mass:      13.1621                13.9837                13.1973
 IR Intens:        0.000                  0.000                  0.000
 Frequency:       413.29                 416.19                 444.20
 Force Cnst:      1.3346                 1.6820                 1.6118
 Red. Mass:      13.2613                16.4816                13.8644
 IR Intens:        0.000                  0.000                  0.000
 Frequency:       482.62                 495.71                 524.30
 Force Cnst:      1.8857                 1.9191                 2.3645
 Red. Mass:      13.7411                13.2551                14.5993
 IR Intens:        0.000                  0.000                  0.000
 Frequency:       527.98                 617.58                 637.90
 Force Cnst:      2.1159                 3.4274                 4.3670
 Red. Mass:      12.8829                15.2519                18.2151
 IR Intens:        0.000                  0.000                  0.000
 Frequency:       655.04                1745.44                2008.94
 Force Cnst:      4.1227                23.7388                31.7221
 Red. Mass:      16.3080                13.2252                13.3407
 IR Intens:        0.000                  0.000                  0.000
 Frequency:      2062.97                2241.57                2278.25
 Force Cnst:     33.5621                39.6496                40.8672
 Red. Mass:      13.3848                13.3932                13.3636
 IR Intens:        0.000                  0.000                  0.000

 STANDARD THERMODYNAMIC QUANTITIES AT   298.15 K  AND     1.00 ATM

   This Molecule has  4 Imaginary Frequencies
   Zero point vibrational energy:       24.935 kcal/mol

   Atom    1 Element Fe Has Mass   55.93490
   Atom    2 Element C  Has Mass   12.00000
   Atom    3 Element C  Has Mass   12.00000
   Atom    4 Element C  Has Mass   12.00000
   Atom    5 Element C  Has Mass   12.00000
   Atom    6 Element C  Has Mass   12.00000
   Atom    7 Element O  Has Mass   15.99491
   Atom    8 Element O  Has Mass   15.99491
   Atom    9 Element O  Has Mass   15.99491
   Atom   10 Element O  Has Mass   15.99491
   Atom   11 Element O  Has Mass   15.99491
   Molecular Mass:   195.909450 amu
   Principal axes and moments of inertia in amu*Bohr^2:
                             1           2           3
    Eigenvalues --     1910.73041  2224.51370  2402.42194
          X               0.92684    -0.25082    -0.27939
          Y               0.07786     0.85634    -0.51051
          Z               0.36730     0.45140     0.81322
   Rotational Symmetry Number is   1
   The Molecule is an Asymmetric Top
   Translational Enthalpy:        0.889 kcal/mol
   Rotational Enthalpy:           0.889 kcal/mol
   Vibrational Enthalpy:         28.936 kcal/mol
   gas constant (RT):             0.592 kcal/mol
   Translational Entropy:        41.722  cal/mol.K
   Rotational Entropy:           30.702  cal/mol.K
   Vibrational Entropy:          23.562  cal/mol.K

   Total Enthalpy:               31.306 kcal/mol
   Total Entropy:                95.986  cal/mol.K

 Total job time:  122.79s(wall), 242.11s(cpu)
        *  Thank you very much for using Q-Chem.  Have a nice day.  *
