 Q-Chem 5.4 (devel), Q-Chem, Inc., Pleasanton, CA (2021)
 Q-Chem 5.4.1 for Intel X86 EM64T Linux

User input:
--------------------------------------------------------------
$molecule
0   1
 Fe 841.96617004 -63.92800761 50.93302965    -1  0   0   0   0
C 842.26015071 -67.12081935 51.91758042    -2  0   0   0   0
C 841.68630525 -60.75994025 49.60890277    -2  0   0   0   0
C 838.59465010 -63.84969621 50.99181625    -2  0   0   0   0
C 843.37683531 -62.85067131 53.86450538    -2  0   0   0   0
C 844.00129374 -65.04421613 48.29099213    -2  0   0   0   0
O 842.32779735 -69.18235823 52.42602743    -3  0   0   0   0
O 841.64624583 -58.71508731 48.76887280    -3  0   0   0   0
O 836.34520639 -64.05185242 51.12607494    -3  0   0   0   0
O 844.05378265 -62.14894488 55.84971983    -3  0   0   0   0
O 845.17108692 -65.88527252 46.62438607    -3  0   0   0   0
H 815.52187888 -81.20379021 65.06493541      6     13    0    0    0
C 815.50878194 -79.16817370 64.85794200     1     12    14    15    16
H 814.39522116 -79.02347116 63.18269955     6     13    0    0    0
H 814.64884920 -78.22992951 66.52097343     6     13    0    0    0
C 818.38742561 -78.46675876 64.46814386     2     13    17    18    19
H 819.19984140 -79.53193067 62.93284398     6     16    0    0    0
H 818.13344351 -76.39871328 64.01717447     6     16    0    0    0
C 819.93153236 -78.70522867 66.96632379     2     16    20   21   22
H 819.06632874 -77.65468942 68.57951370     6     19    0    0    0
H 819.85056545 -80.64553438 67.63991439     6     19    0    0    0
C 822.69676524 -77.82905387 66.62448917     2     19   23   24   25
H 823.48592312 -78.89935444 65.10355854     6    22    0    0    0
H 822.74779223 -75.77097813 66.08798203     6    22    0    0    0
C 824.21263578 -78.22151453 69.10490648     2    22   26   27   28
H 823.81948575 -76.72548779 70.48938492     6    25    0    0    0
H 823.78850841 -79.90850246 70.09343116     6    25    0    0    0
C 827.04118239 -78.34192310 68.39350680     2    25   29   30   31
H 827.05025012 -79.28489952 66.55211388     6    28    0    0    0
H 827.88340419 -76.38276777 68.05920313     6    28    0    0    0
C 828.54965687 -79.77859602 70.38678682     2    28   32   33   34
H 827.94520054 -79.43552722 72.18337454     6    31    0    0    0
H 828.27899860 -81.90594458 70.24980175     6    31    0    0    0
C 831.40253366 -78.97262488 70.09774589     2    31   35   36   37
H 831.85795734 -79.17612693 68.13448889     6    34    0    0    0
H 831.44690306 -77.09793603 70.59438779     6    34    0    0    0
C 833.09173223 -80.63918089 71.62159097     2    34   38   39   40
H 832.60751655 -80.26617747 73.62136630     6    37    0    0    0
H 832.67863859 -82.67491286 71.34972715     6    37    0    0    0
C 835.88698868 -80.06535417 71.17037018     2    37   41   42   43
H 836.30656547 -81.02146034 69.47170806     6    40    0    0    0
H 836.07177959 -78.02507793 70.71859158     6    40    0    0    0
C 837.52292638 -80.66131055 73.28938393     2    40   44   45   46
H 836.91185925 -79.64781362 75.07977585     6    43    0    0    0
H 837.38204091 -82.68506819 73.72816389     6    43    0    0    0
C 840.28783029 -80.16635900 72.97888713     1    43   47   48   49
H 841.26210544 -81.89139841 72.58659224     6    46    0    0    0
H 841.56621139 -79.69078930 74.50809477     6    46    0    0    0
H 840.48329436 -78.72002430 71.60246585     6    46    0    0    0
H 848.90661694 -70.78669537 57.90972649     6     51    0    0    0
C 846.89270735 -70.71973847 57.21047048     1     50    52    53    54
H 846.21365347 -68.75828422 57.26787025     6     51    0    0    0
H 846.91319788 -71.42187405 55.25520469     6     51    0    0    0
C 845.30422595 -72.06630142 59.18024489     2     51    55    56    57
H 843.45710281 -71.81768343 58.48904270     6     54    0    0    0
H 845.94315650 -74.03118809 59.00089062     6     54    0    0    0
C 845.44496243 -71.08873034 61.92152425     2     54    58   59   60
H 845.76462874 -69.06165453 61.97837576     6     57    0    0    0
H 843.44130111 -71.24937388 62.76019663     6     57    0    0    0
C 847.40571013 -72.44866693 63.56213728     2     57   61   62   63
H 846.86501789 -74.54012322 63.51892101     6    60    0    0    0
H 849.24044431 -72.39917460 62.70880397     6    60    0    0    0
C 847.58389566 -71.43392946 66.33552590     2    60   64   65   66
H 848.08220476 -69.54790789 66.35943306     6    63    0    0    0
H 845.62866937 -71.55379864 66.96669534     6    63    0    0    0
C 849.16739448 -73.30797487 67.92722798     2    63   67   68   69
H 849.07675695 -72.71538899 69.81622206     6    66    0    0    0
H 848.39420925 -75.24149507 67.90557566     6    66    0    0    0
C 851.99379565 -73.26267740 67.26841929     2    66   70   71   72
H 852.34860587 -73.87849466 65.31382688     6    69    0    0    0
H 852.67655800 -71.31924199 67.17900255     6    69    0    0    0
C 853.82317414 -74.89178543 68.89041311     2    69   73   74   75
H 854.18036662 -73.77482346 70.63871233     6    72    0    0    0
H 852.79999286 -76.59938558 69.41203755     6    72    0    0    0
C 856.39043761 -75.28534902 67.95274993     2    72   76   77   78
H 856.16012136 -76.20718039 66.14428008     6    75    0    0    0
H 857.08912456 -73.46153407 67.62751908     6    75    0    0    0
C 858.07867924 -76.83272410 69.82546790     2    75   79   80   81
H 857.26667545 -76.87334172 71.63926647     6    78    0    0    0
H 858.23857603 -78.73529346 69.25608330     6    78    0    0    0
C 860.91326151 -76.14288934 69.85248801     2    78   82   83   84
H 861.64852616 -76.15020542 68.02469388     6    81    0    0    0
H 861.05350634 -74.09157989 70.35990528     6    81    0    0    0
C 862.51958791 -77.81517645 71.68266918     1    81   85   86   87
H 864.44650904 -77.23922206 71.72141711     6    84    0    0    0
H 862.76301587 -79.71086841 71.09684696     6    84    0    0    0
H 861.85531849 -77.46640307 73.67330725     6    84    0    0    0
H 831.50371462 -61.59909971 82.63047541     6     89    0    0    0
C 833.05019932 -62.31616505 81.49906579     1     88    90    91    92
H 832.07282872 -63.46830264 80.10303487     6     89    0    0    0
H 833.96217513 -60.80285445 80.57663224     6     89    0    0    0
C 834.74558498 -64.07163059 82.94859038     2     89    93    94    95
H 835.81521938 -62.80576644 84.27226831     6     92    0    0    0
H 833.72864910 -65.16928261 84.17625622     6     92    0    0    0
C 836.56119840 -65.44100092 81.15396211     2     92    96   97   98
H 835.13500648 -66.56333278 80.05556248     6     95    0    0    0
H 837.42244782 -64.01846020 79.90771915     6     95    0    0    0
C 838.26112104 -67.18936381 82.53582692     2     95   99   100   101
H 838.74535003 -65.95087537 84.16227093     6    98    0    0    0
H 837.23170230 -68.84325329 83.15089602     6    98    0    0    0
C 840.61957993 -67.62462479 80.90765613     2    98   102   103   104
H 840.25847578 -68.31752360 79.13130366     6    101    0    0    0
H 841.83149638 -65.98608150 80.70068292     6    101    0    0    0
C 842.29204026 -69.76335096 82.20000144     2    101   105   106   107
H 841.24323473 -71.46479641 81.97192532     6    104    0    0    0
H 844.14020691 -69.98641131 81.24223937     6    104    0    0    0
C 842.99148023 -69.25295627 84.95902098     2    104   108   109   110
H 843.31462942 -67.30341202 85.27549843     6    107    0    0    0
H 841.29589925 -69.52781236 86.24475893     6    107    0    0    0
C 845.34086662 -70.64532628 85.81030904     2    107   111   112   113
H 844.92808370 -72.63348038 85.54405258     6    110    0    0    0
H 846.91745013 -69.98373132 84.63317072     6    110    0    0    0
C 845.76855951 -70.25469478 88.59177501     2    110   114   115   116
H 845.75901956 -68.23560349 88.81623206     6    113    0    0    0
H 844.11958832 -70.87140936 89.50515042     6    113    0    0    0
C 848.16482197 -71.47606710 89.82440033     2    113   117   118   119
H 848.27185682 -73.48594836 89.20320980     6    116    0    0    0
H 849.68303666 -70.77448491 88.64092608     6    116    0    0    0
C 848.39815941 -71.35560142 92.66932675     2    116   120   121   122
H 850.43224876 -71.52383230 93.16047874     6    119    0    0    0
H 847.83912101 -69.56828780 93.30943867     6    119    0    0    0
C 846.79166654 -73.22594358 94.26746577     1    119   123   124   125
H 847.26841976 -73.24206838 96.33740008     6    122    0    0    0
H 847.20832603 -75.06058025 93.59677184     6    122    0    0    0
H 844.78738228 -73.14303893 94.13853331     6    122    0    0    0
H 832.84358992 -47.08097072 75.73513264     6     127    0    0    0
C 832.30113580 -46.23591669 73.76872419     1     126    128    129    130
H 831.21635005 -44.49950008 73.89752691     6     127    0    0    0
H 834.06684828 -45.67401055 72.84256005     6     127    0    0    0
C 830.81108010 -48.30128700 72.28689981     2     127    131    132    133
H 831.72446652 -50.11685073 72.47172427     6     130    0    0    0
H 828.87963925 -48.51442425 73.03999509     6     130    0    0    0
C 830.39524150 -47.51628187 69.56687909     2     130    134   135   136
H 829.72954405 -45.61122334 69.45493967     6     133    0    0    0
H 832.23103057 -47.22930758 68.75636544     6     133    0    0    0
C 828.79708928 -49.09272630 67.86923569     2     133   137   138   139
H 829.39781207 -50.99469902 68.24828590     6    136    0    0    0
H 826.73030794 -48.90082739 68.47632496     6    136    0    0    0
C 829.39982821 -48.42981971 65.11336218     2    136   140   141   142
H 828.84640171 -46.51752675 64.66511677     6    139    0    0    0
H 831.37461891 -48.41373688 64.73781234     6    139    0    0    0
C 827.98923632 -50.25624430 63.34719681     2    139   143   144   145
H 828.39614861 -52.21935903 64.03405546     6    142    0    0    0
H 826.00998384 -49.90132675 64.03453325     6    142    0    0    0
C 828.71710525 -50.13955061 60.53530663     2    142   146   147   148
H 828.76856591 -48.21901675 59.75262695     6    145    0    0    0
H 830.67369383 -50.63106782 60.37445107     6    145    0    0    0
C 827.22850816 -51.98645893 59.02374345     2    145   149   150   151
H 827.48515300 -53.88315992 59.62638103     6    148    0    0    0
H 825.31355214 -51.29843262 59.21129846     6    148    0    0    0
C 828.22129890 -52.12097820 56.20388864     2    148   152   153   154
H 827.90981534 -50.35445126 55.18493827     6    151    0    0    0
H 830.20767072 -52.32292835 56.27923438     6    151    0    0    0
C 826.98765914 -54.28665377 54.52401649     2    151   155   156   157
H 827.79411344 -54.17594364 52.67148318     6    154    0    0    0
H 827.06761601 -56.22711295 55.34104161     6    154    0    0    0
C 824.24653749 -53.94300612 53.80077559     2    154   158   159   160
H 823.24788140 -53.59015651 55.52106803     6    157    0    0    0
H 823.83570954 -52.39808571 52.61539352     6    157    0    0    0
C 822.84295685 -56.19262781 52.49062518     1    157   161   162   163
H 820.79982346 -55.87064617 52.17652169     6    160    0    0    0
H 822.79160812 -57.94155486 53.48198810     6    160    0    0    0
H 823.81737103 -56.49539915 50.70614585     6    160    0    0    0
H 837.81883350 -48.03715225 84.58229537     6     165    0    0    0
C 837.22399846 -47.56702534 82.66972773     1     164    166    167    168
H 838.30270700 -48.89212211 81.63331718     6     165    0    0    0
H 835.13495700 -47.97490407 82.75120420     6     165    0    0    0
C 837.80154399 -44.71021927 82.09053056     2     165    169    170    171
H 837.07909275 -43.37776351 83.46441475     6     168    0    0    0
H 839.91117505 -44.63232042 82.41775774     6     168    0    0    0
C 837.17014334 -43.97240675 79.27770567     2     168    172   173   174
H 838.38147913 -45.02091328 78.00753729     6     171    0    0    0
H 835.32501846 -44.73251900 79.00724682     6     171    0    0    0
C 837.39989130 -41.17041000 78.46728838     2     171   175   176   177
H 836.37779734 -40.02016114 79.85869122     6    174    0    0    0
H 839.45265735 -40.69376815 78.52179050     6    174    0    0    0
C 836.14310416 -40.87842778 75.73487732     2    174   178   179   180
H 836.50717753 -42.20395451 74.32325585     6    177    0    0    0
H 834.06667155 -40.84311620 75.82639060     6    177    0    0    0
C 837.30839973 -38.47676991 74.49658378     2    177   181   182   183
H 837.36780776 -36.83829291 75.72981534     6    180    0    0    0
H 839.31960362 -38.92699853 74.19456104     6    180    0    0    0
C 835.84463653 -37.95911375 72.07847406     2    180   184   185   186
H 836.43151192 -39.36040785 70.61845098     6    183    0    0    0
H 833.88022794 -38.38123762 72.35405481     6    183    0    0    0
C 836.77856651 -35.51936048 70.89796496     2    183   187   188   189
H 835.98457183 -34.16610828 72.12469434     6    186    0    0    0
H 838.86330652 -35.49184126 71.01652599     6    186    0    0    0
C 835.63043159 -35.15317388 68.19839699     2    186   190   191   192
H 836.43615373 -36.62388429 66.94234816     6    189    0    0    0
H 833.58116512 -35.47269052 68.39417836     6    189    0    0    0
C 836.18800057 -32.57010612 66.97802122     2    189   193   194   195
H 835.52468900 -31.07449031 68.22162039     6    192    0    0    0
H 838.11919883 -32.06575713 66.66664182     6    192    0    0    0
C 834.63869730 -32.19117486 64.41400073     2    192   196   197   198
H 835.63247680 -33.04424817 62.81094931     6    195    0    0    0
H 832.63953611 -32.94399116 64.49827001     6    195    0    0    0
C 834.49576847 -29.47266957 63.58334534     1    195   199   200   201
H 833.61781045 -29.14249858 61.69468942     6    198    0    0    0
H 836.44159403 -28.82723554 63.66374586     6    198    0    0    0
H 833.56284974 -28.21496747 64.97395795     6    198    0    0    0
H 851.07318683 -54.68460469 67.44946672     6     203    0    0    0
C 850.84365480 -52.71834298 67.75217678     1     202    204    205    206
H 852.21129501 -51.65410375 66.68560776     6     203    0    0    0
H 848.88787706 -52.37262502 67.31564661     6     203    0    0    0
C 851.42966379 -51.82586451 70.36640150     2     203    207    208    209
H 850.91700463 -49.85251515 70.52148028     6     206    0    0    0
H 850.05249638 -52.83465537 71.49233468     6     206    0    0    0
C 854.24083044 -52.03801361 71.14117298     2     206    210   211   212
H 853.93674844 -51.98752887 73.14815948     6     209    0    0    0
H 855.05828844 -53.90303431 70.81056530     6     209    0    0    0
C 855.98445819 -49.80993386 70.57331894     2     209   213   214   215
H 856.04421857 -49.56269778 68.53139572     6    212    0    0    0
H 855.31487810 -48.14306932 71.39100074     6    212    0    0    0
C 858.83765533 -50.34136028 71.46866578     2    212   216   217   218
H 858.67690717 -50.70746387 73.46719110     6    215    0    0    0
H 859.37332828 -52.08532497 70.53437480     6    215    0    0    0
C 860.55504435 -48.06757699 70.74808062     2    215   219   220   221
H 860.46307295 -47.72508198 68.68589656     6    218    0    0    0
H 859.79329462 -46.33025997 71.72606826     6    218    0    0    0
C 863.29071447 -48.48497060 71.66370198     2    218   222   223   224
H 863.21972425 -48.84860041 73.66068324     6    221    0    0    0
H 864.13567389 -49.99688457 70.50834086     6    221    0    0    0
C 864.97882291 -46.18006793 71.33806101     2    221   225   226   227
H 865.09580186 -45.79281861 69.17530737     6    224    0    0    0
H 863.95011657 -44.56551607 72.10900726     6    224    0    0    0
C 867.52283349 -46.34929718 72.34903394     2    224   228   229   230
H 867.58547171 -46.48501283 74.40351601     6    227    0    0    0
H 868.36611197 -48.11785632 71.61470140     6    227    0    0    0
C 869.33485593 -44.04753012 71.83381204     2    227   231   232   233
H 869.59431816 -43.39374653 69.89603198     6    230    0    0    0
H 868.23595676 -42.64384507 72.80235840     6    230    0    0    0
C 871.99682543 -44.41118136 72.92512066     2    230   234   235   236
H 872.12826122 -45.64353757 74.66605032     6    233    0    0    0
H 873.08777189 -45.38262128 71.56677691     6    233    0    0    0
C 873.28948939 -41.91430688 73.63882542     1    233   237   238   239
H 875.06362450 -42.43414384 74.47542669     6    236    0    0    0
H 872.24398813 -40.76450144 75.00498405     6    236    0    0    0
H 873.57847899 -40.81109136 71.91253188     6    236    0    0    0
H 848.11668337 -84.86200033 67.80515896     6     241    0    0    0
C 846.84899755 -83.27760932 68.10316005     1     240    242    243    244
H 845.83454450 -82.85182916 66.46324172     6     241    0    0    0
H 845.40568102 -83.95187395 69.31392251     6     241    0    0    0
C 847.93656147 -80.95020873 69.49930418     2     241    245    246    247
H 849.45018396 -80.27896512 68.36768010     6     244    0    0    0
H 846.57331091 -79.54756809 69.60197190     6     244    0    0    0
C 848.84347458 -81.38188306 72.20325892     2     244    248   249   250
H 849.38526008 -79.59968664 73.23540314     6     247    0    0    0
H 847.36491561 -82.27148184 73.36598497     6     247    0    0    0
C 851.16026454 -83.28236658 72.35040782     2     247   251   252   253
H 851.50410833 -83.96284268 74.35487460     6    250    0    0    0
H 850.91337559 -84.86510282 70.99335237     6    250    0    0    0
C 853.56866120 -81.90010190 71.66622149     2    250   254   255   256
H 853.33188068 -80.72871308 69.97463787     6    253    0    0    0
H 853.96981895 -80.65467541 73.26470549     6    253    0    0    0
C 856.16770401 -83.45911141 71.70885924     2    253   257   258   259
H 857.65038491 -82.10978853 71.91482721     6    256    0    0    0
H 856.20824282 -84.47072612 73.39746359     6    256    0    0    0
C 856.41251338 -85.15103266 69.55926273     2    256   260   261   262
H 854.94861943 -86.38502577 69.56945544     6    259    0    0    0
H 856.14493044 -83.81628471 68.05455841     6    259    0    0    0
C 858.99647833 -86.55558733 69.39182778     2    259   263   264   265
H 860.59724866 -85.37363906 70.04295686     6    262    0    0    0
H 859.18822032 -88.16981918 70.65373413     6    262    0    0    0
C 859.59280988 -87.54379316 66.66821150     2    262   266   267   268
H 858.50491868 -89.27396609 66.34790297     6    265    0    0    0
H 859.00072763 -86.05387823 65.17459842     6    265    0    0    0
C 862.43162867 -88.07446592 66.35206400     2    265   269   270   271
H 863.70538496 -86.69876623 67.27123970     6    268    0    0    0
H 862.68131199 -89.89521322 67.41604663     6    268    0    0    0
C 863.26233461 -88.36717686 63.46939929     2    268   272   273   274
H 862.08411803 -89.96048969 62.73911358     6    271    0    0    0
H 862.62357368 -86.81904354 62.35115913     6    271    0    0    0
C 866.08664239 -89.02878431 63.04541144     1    271   275   276   277
H 867.24147387 -87.53024277 64.06062080     6    274    0    0    0
H 866.52627958 -89.33505771 60.96230760     6    274    0    0    0
H 866.36432293 -90.74629632 64.05864670     6    274    0    0    0
H 847.29717907 -53.37699084 79.41718408     6     279    0    0    0
C 848.48140170 -55.04301603 79.53076532     1     278    280    281    282
H 849.05769877 -55.47926692 81.47509157     6     279    0    0    0
H 847.27171609 -56.77769250 79.15258550     6     279    0    0    0
C 850.88481096 -54.99629340 77.79037310     2     279    283    284    285
H 850.29803252 -55.32491590 75.85209075     6     282    0    0    0
H 851.67547312 -53.11391647 77.59277888     6     282    0    0    0
C 852.82684521 -56.99918227 78.49898602     2     282    286   287   288
H 853.44742924 -56.51841774 80.39415264     6     285    0    0    0
H 852.21112234 -58.97927958 78.44335795     6     285    0    0    0
C 854.93243604 -56.90764750 76.63636470     2     285   289   290   291
H 854.26076700 -57.44569159 74.69408608     6    288    0    0    0
H 855.69490889 -54.92234459 76.48032622     6    288    0    0    0
C 857.16972909 -58.58735124 77.25630967     2    288   292   293   294
H 857.99520574 -58.17041756 79.19964113     6    291    0    0    0
H 856.40072453 -60.40828378 77.37746652     6    291    0    0    0
C 859.12078621 -58.56076562 75.05911711     2    291   295   296   297
H 858.00962841 -58.96065565 73.20490457     6    294    0    0    0
H 859.87813938 -56.55331886 74.85071254     6    294    0    0    0
C 861.42383915 -60.31149385 75.34755020     2    294   298   299   300

   17   -1830.5187597140      2.18E-09 Convergence criterion met
 Total energy in the final basis set = -1828.26094502
 Total job time:  17.02s(wall), 30.08s(cpu)
        *  Thank you very much for using Q-Chem.  Have a nice day.  *

User input: 2 of 2

                  Welcome to Q-Chem
     A Quantum Leap Into The Future Of Chemistry

 Q-Chem 5.4 (devel), Q-Chem, Inc., Pleasanton, CA (2021)

 E. Epifanovsky,  A. T. B. Gilbert,  Xintian Feng,  Joonho Lee,  Yuezhi Mao,
 N. Mardirossian,  P. Pokhilko,  A. White,  M. Wormit,  M. P. Coons,
 A. L. Dempwolff,  Zhengting Gan,  D. Hait,  P. R. Horn,  L. D. Jacobson,
 I. Kaliman,  J. Kussmann,  A. W. Lange,  Ka Un Lao,  D. S. Levine,  Jie Liu,
 S. C. McKenzie,  A. F. Morrison,  K. Nanda,  F. Plasser,  D. R. Rehn,
 M. L. Vidal,  Zhi-Qiang You,  Ying Zhu,  B. Alam,  B. Albrecht,
 A. Aldossary,  E. Alguire,  J. H. Andersen,  D. Barton,  K. Begam,  A. Behn,
 Y. A. Bernard,  E. J. Berquist,  H. Burton,  A. Carreras,  K. Carter-Fenk,
 R. Chakraborty,  A. D. Chien,  K. D. Closser,  V. Cofer-Shabica,
 S. Dasgupta,  Jia Deng,  M. de Wergifosse,  M. Diedenhofen,  Hainam Do,
 S. Ehlert,  Po-Tung Fang,  S. Fatehi,  Qingguo Feng,  T. Friedhoff,
 J. Gayvert,  Qinghui Ge,  G. Gidofalvi,  M. Goldey,  J. Gomes,
 C. Gonzalez-Espinoza,  S. Gulania,  A. Gunina,  M. W. D. Hanson-Heine,
 P. H. P. Harbach,  A. W. Hauser,  M. F. Herbst,  M. Hernandez Vera,
 M. Hodecker,  Z. C. Holden,  S. Houck,  Xunkun Huang,  Kerwin Hui,
 B. C. Huynh,  M. Ivanov,  Hyunjun Ji,  Hanjie Jiang,  B. Kaduk,  S. Kaehler,
 K. Khistyaev,  Jaehoon Kim,  P. Klunzinger,  Z. Koczor-Benda,
 Joong Hoon Koh,  D. Kosenkov,  L. Koulias,  T. Kowalczyk,  C. M. Krauter,
 K. Kue,  A. Kunitsa,  T. Kus,  A. Landau,  K. V. Lawler,  D. Lefrancois,
 S. Lehtola,  Rain Li,  Yi-Pei Li,  Jiashu Liang,  M. Liebenthal,
 Hung-Hsuan Lin,  You-Sheng Lin,  Fenglai Liu,  Kuan-Yu Liu,
 M. Loipersberger,  A. Luenser,  A. Manjanath,  P. Manohar,  E. Mansoor,
 S. F. Manzer,  Shan-Ping Mao,  A. V. Marenich,  T. Markovich,  S. Mason,
 S. A. Maurer,  P. F. McLaughlin,  M. F. S. J. Menger,  J.-M. Mewes,
 S. A. Mewes,  P. Morgante,  J. W. Mullinax,  K. J. Oosterbaan,  G. Paran,
 Alexander C. Paul,  Suranjan K. Paul,  F. Pavosevic,  Zheng Pei,  S. Prager,
 E. I. Proynov,  E. Ramos,  B. Rana,  A. E. Rask,  A. Rettig,  R. M. Richard,
 F. Rob,  E. Rossomme,  T. Scheele,  M. Scheurer,  M. Schneider,
 N. Sergueev,  S. M. Sharada,  W. Skomorowski,  D. W. Small,  C. J. Stein,
 Yu-Chuan Su,  E. J. Sundstrom,  Zhen Tao,  J. Thirman,  T. Tsuchimochi,
 N. M. Tubman,  S. P. Veccham,  O. Vydrov,  J. Wenzel,  J. Witte,  A. Yamada,
 Kun Yao,  S. Yeganeh,  S. R. Yost,  A. Zech,  Igor Ying Zhang,  Xing Zhang,
 Yu Zhang,  D. Zuev,  A. Aspuru-Guzik,  A. T. Bell,  N. A. Besley,
 K. B. Bravaya,  B. R. Brooks,  D. Casanova,  Jeng-Da Chai,  S. Coriani,
 C. J. Cramer,  A. E. DePrince, III,  R. A. DiStasio Jr.,  A. Dreuw,
 B. D. Dunietz,  T. R. Furlani,  W. A. Goddard III,  S. Grimme,
 S. Hammes-Schiffer,  T. Head-Gordon,  W. J. Hehre,  Chao-Ping Hsu,
 T.-C. Jagau,  Yousung Jung,  A. Klamt,  Jing Kong,  D. S. Lambrecht,
 WanZhen Liang,  N. J. Mayhall,  C. W. McCurdy,  J. B. Neaton,
 C. Ochsenfeld,  J. A. Parkhill,  R. Peverati,  V. A. Rassolov,  Yihan Shao,
 L. V. Slipchenko,  T. Stauch,  R. P. Steele,  J. E. Subotnik,
 A. J. W. Thom,  A. Tkatchenko,  D. G. Truhlar,  T. Van Voorhis,
 T. A. Wesolowski,  K. B. Whaley,  H. L. Woodcock III,  P. M. Zimmerman,
 S. Faraji,  P. M. W. Gill,  M. Head-Gordon,  J. M. Herbert,  A. I. Krylov

 Additional authors for Version 5.4.1:
 S. Kotaru,  Shaozhi Li,  Xiangyuan Li,  F. Matz,  A. Molle,  Haisheng Ren,
 Yingli Su,  Hung-Yi Tsai,  C. Utku,  Fang Wang

 Contributors to earlier versions of Q-Chem not listed above:
 R. D. Adamson,  B. Austin,  R. Baer,  J. Baker,  G. J. O. Beran,
 K. Brandhorst,  S. T. Brown,  E. F. C. Byrd,  A. K. Chakraborty,
 G. K. L. Chan,  Chun-Min Chang,  Yunqing Chen,  C.-L. Cheng,
 Siu Hung Chien,  D. M. Chipman,  D. L. Crittenden,  H. Dachsel,
 R. J. Doerksen,  A. D. Dutoi,  R. G. Edgar,  J. Fosso-Tande,
 L. Fusti-Molnar,  D. Ghosh,  A. Ghysels,  A. Golubeva-Zadorozhnaya,
 J. Gonthier,  M. S. Gordon,  S. R. Gwaltney,  G. Hawkins,  J. E. Herr,
 A. Heyden,  S. Hirata,  E. G. Hohenstein,  G. Kedziora,  F. J. Keil,
 C. Kelley,  Jihan Kim,  R. A. King,  R. Z. Khaliullin,  P. P. Korambath,
 W. Kurlancheek,  A. Laurent,  A. M. Lee,  M. S. Lee,  S. V. Levchenko,
 Ching Yeh Lin,  D. Liotard,  E. Livshits,  R. C. Lochan,  I. Lotan,
 L. A. Martinez-Martinez,  P. E. Maslen,  N. Nair,  D. P. O'Neill,
 D. Neuhauser,  E. Neuscamman,  C. M. Oana,  R. Olivares-Amaya,  R. Olson,
 T. M. Perrine,  B. Peters,  P. A. Pieniazek,  A. Prociuk,  Y. M. Rhee,
 J. Ritchie,  M. A. Rohrdanz,  E. Rosta,  N. J. Russ,  H. F. Schaefer III,
 M. W. Schmidt,  N. E. Schultz,  S. Sharma,  N. Shenvi,  C. D. Sherrill,
 A. C. Simmonett,  A. Sodt,  T. Stein,  D. Stuck,  K. S. Thanthiriwatte,
 V. Vanovschi,  L. Vogt,  Tao Wang,  A. Warshel,  M. A. Watson,
 C. F. Williams,  Q. Wu,  X. Xu,  Jun Yang,  W. Zhang,  Yan Zhao

 Please cite Q-Chem as follows:
 Y. Shao et al., Mol. Phys. 113, 184-215 (2015)
 DOI: 10.1080/00268976.2014.952696

 Q-Chem 5.4.1 for Intel X86 EM64T Linux

 Parts of Q-Chem use Armadillo 9.900.5 (Nocturnal Misbehaviour).
 http://arma.sourceforge.net/

 Q-Chem begins on Fri Jul  1 20:00:20 2022

 Host: p09r14n09.grace.hpc.yale.internal
0

     Scratch files written to /home/tl686/scratch60/qchem_dev/scratch/qchem8909//
 Processing $rem in /home/tl686/qchem_dev/qchem/config/preferences:
 Processing $rem in /home/tl686/.qchemrc:
Applying user defined connections for MM calculations
The previous job contains 0 fragments, simply inherited here

 Checking the input file for inconsistencies... 	...done.

--------------------------------------------------------------
User input:
--------------------------------------------------------------

$molecule
READ
$end

$qm_atoms
1:11
$end

$force_field_params
NumAtomTypes 3
AtomType -1   0.0238     3.11   0.2868
AtomType -2   0.07124    3.30   0.6597
AtomType -3  -0.0760     3.09   0.1434
$end

$rem
     JOBTYPE  freq
     METHOD   bp86
     BASIS    def2-msvp
     MAX_SCF_CYCLES   800
     INPUT_BOHR TRUE
     SYM_IGNORE TRUE
     SCF_GUESS     read
     user_connect            true
     qm_mm_interface         ONIOM
     force_field             oplsaa
$end

--------------------------------------------------------------

    3   -1830.5187597135      3.64E-09 Convergence criterion met
 Total energy in the final basis set = -1828.26094502

                    Orbital Energies (a.u.)
 --------------------------------------------------------------

 Alpha MOs
 -- Occupied --
******** -29.6354 -25.5952 -25.5822 -25.5789 -18.8889 -18.8884 -18.8838
-18.8753 -18.8666 -10.0585 -10.0503 -10.0501 -10.0423 -10.0405  -3.3198
 -2.1563  -2.1299  -2.1232  -1.0846  -1.0576  -1.0544  -1.0441  -1.0221
 -0.5752  -0.5308  -0.5203  -0.5154  -0.5123  -0.4614  -0.4528  -0.4474
 -0.4353  -0.4326  -0.4313  -0.4211  -0.4200  -0.4118  -0.4109  -0.4030
 -0.4008  -0.3977  -0.3933  -0.3741  -0.2768  -0.2726  -0.2330  -0.2221

          Ground-State Mulliken Net Atomic Charges

     Atom                 Charge (a.u.)
  ----------------------------------------
      1 Fe                   -0.468511
      2 C                     0.169584
      3 C                     0.209459
      4 C                     0.217241
      5 C                     0.230951
      6 C                     0.208201
      7 O                    -0.075137
      8 O                    -0.111349
      9 O                    -0.150829
     10 O                    -0.120960
     11 O                    -0.108649
  ----------------------------------------
  Sum of atomic charges =     0.000000

                    Cartesian Multipole Moments
 -----------------------------------------------------------------
    Charge (ESU x 10^10)
                -0.0000
    Dipole Moment (Debye)
         X       0.5709545855      Y      -0.1126507656      Z      -0.1362560678
       Tot       0.5976997990
    Quadrupole Moments (Debye-Ang)
        XX     438.1485     XY     -69.8974     YY     -60.9603
        XZ     -45.1534     YZ       0.7152     ZZ     -77.0751
