 Q-Chem 5.4 (devel), Q-Chem, Inc., Pleasanton, CA (2021)
 Q-Chem 5.4.1 for Intel X86 EM64T Linux

User input:
--------------------------------------------------------------
$molecule
0   1
 Fe 73.97101558 34.07807444 -44.06560794    -1  0   0   0   0
C 72.60917963 33.18981687 -41.13840342    -2  0   0   0   0
C 73.43468681 37.22124212 -44.99955857    -2  0   0   0   0
C 76.70650523 35.06175151 -42.29726422    -2  0   0   0   0
C 75.97308724 31.84816215 -45.61928597    -2  0   0   0   0
C 70.90599955 33.15180442 -45.36052823    -2  0   0   0   0
O 71.84783992 32.53480205 -39.16493441    -3  0   0   0   0
O 72.79096449 39.30893621 -45.35826766    -3  0   0   0   0
O 78.48809987 35.60549427 -41.21743529    -3  0   0   0   0
O 77.08392427 30.13403649 -46.42080719    -3  0   0   0   0
O 68.98851057 32.45123644 -46.18735087    -3  0   0   0   0
H 75.47280702 24.92636050 -23.96066312      6     13    0    0    0
C 74.73013969 23.26393158 -23.16130336     1     12    14    15    16
H 74.56954169 23.67630081 -21.10335734     6     13    0    0    0
H 72.76090470 22.77438094 -23.71646109     6     13    0    0    0
C 76.44856200 20.89462692 -23.62612154     2     13    17    18    19
H 78.39827859 21.46955881 -23.06362888     6     16    0    0    0
H 75.83561237 19.49632316 -22.31121944     6     16    0    0    0
C 76.17025786 19.53816217 -26.11881260     2     16    20   21   22
H 74.28226562 19.13540388 -26.94423433     6     19    0    0    0
H 77.07380233 20.67390947 -27.49857843     6     19    0    0    0
C 77.72675225 17.05772985 -26.17336913     2     19   23   24   25
H 79.56194310 17.48562104 -25.32016398     6    22    0    0    0
H 77.01945012 15.56480828 -25.00884470     6    22    0    0    0
C 78.37858946 16.09462763 -28.91435516     2    22   26   27   28
H 79.37897167 17.72805084 -29.88327650     6    25    0    0    0
H 79.70933639 14.60855401 -28.74701172     6    25    0    0    0
C 76.13326227 15.57600855 -30.64827936     2    25   29   30   31
H 74.53555772 14.64941648 -29.70701510     6    28    0    0    0
H 75.48517659 17.32556653 -31.37268821     6    28    0    0    0
C 76.53398419 13.82122627 -32.90155361     2    28   32   33   34
H 77.41314283 14.98844499 -34.29366239     6    31    0    0    0
H 77.76863290 12.37258600 -32.55447623     6    31    0    0    0
C 74.08261373 12.80009635 -34.09417613     2    31   35   36   37
H 73.38407096 11.29503333 -32.75233281     6    34    0    0    0
H 72.52273693 14.09855360 -34.08980864     6    34    0    0    0
C 74.63742116 11.25619392 -36.55708096     2    34   38   39   40
H 75.31050824 12.55650288 -37.92496459     6    37    0    0    0
H 75.84087632 9.63213622 -36.45565029     6    37    0    0    0
C 72.21798460 10.03565274 -37.50742159     2    37   41   42   43
H 71.57276044 8.59330752 -36.14184788     6    40    0    0    0
H 70.72651043 11.45753745 -37.77363821     6    40    0    0    0
C 72.63844381 8.84982589 -40.07985975     2    40   44   45   46
H 73.21797660 10.30143820 -41.47419761     6    43    0    0    0
H 74.34350996 7.60171796 -40.19338976     6    43    0    0    0
C 70.47808648 7.32952375 -41.07974216     1    43   47   48   49
H 70.17872750 5.71400946 -39.92678724     6    46    0    0    0
H 71.25260875 6.93526651 -42.98707186     6    46    0    0    0
H 68.57501991 8.20499555 -41.50539541     6    46    0    0    0
H 69.25905565 25.11129909 -42.39254682     6     51    0    0    0
C 70.46916737 26.75604143 -41.94315242     1     50    52    53    54
H 71.62907664 27.00504399 -43.64994264     6     51    0    0    0
H 69.25301998 28.47573964 -41.90874970     6     51    0    0    0
C 72.02480412 26.25133043 -39.55586576     2     51    55    56    57
H 72.82957138 27.88342718 -38.45335693     6     54    0    0    0
H 70.76611509 25.41367133 -38.20732706     6     54    0    0    0
C 74.16765392 24.47584317 -39.95914157     2     54    58   59   60
H 75.34060238 25.10602782 -41.56446821     6     57    0    0    0
H 75.22923517 24.38131730 -38.29587632     6     57    0    0    0
C 73.13345612 21.78295311 -40.51637498     2     57   61   62   63
H 71.60230133 21.20772855 -39.14683688     6    60    0    0    0
H 72.17904775 21.60020303 -42.30119487     6    60    0    0    0
C 75.14120760 19.64765732 -40.27592160     2    60   64   65   66
H 76.80412650 20.08195773 -41.38117713     6    63    0    0    0
H 75.77024909 19.53023842 -38.31886590     6    63    0    0    0
C 74.24125990 17.02644581 -41.07436590     2    63   67   68   69
H 75.75002433 15.55879992 -40.87446765     6    66    0    0    0
H 72.71001369 16.67588986 -39.84371770     6    66    0    0    0
C 73.31119504 16.97408071 -43.98364890     2    66   70   71   72
H 71.56044370 18.06136361 -44.08547134     6    69    0    0    0
H 74.65453141 18.02903406 -45.08032772     6    69    0    0    0
C 72.93300845 14.28311220 -45.02892576     2    69   73   74   75
H 74.60423338 13.19880930 -44.53745979     6    72    0    0    0
H 71.32400429 13.30030896 -44.20886788     6    72    0    0    0
C 72.75294369 14.36945872 -47.93801253     2    72   76   77   78
H 71.46497027 15.87920530 -48.39067292     6    75    0    0    0
H 74.69424194 14.82376332 -48.56816358     6    75    0    0    0
C 71.83236411 11.88673881 -49.11147332     2    75   79   80   81
H 73.13566755 10.33147000 -48.68848518     6    78    0    0    0
H 69.90426164 11.35265250 -48.48889785     6    78    0    0    0
C 71.45014289 12.25806065 -51.99693622     2    78   82   83   84
H 69.85197092 13.34218819 -52.18488345     6    81    0    0    0
H 72.97078475 13.38857250 -52.86752272     6    81    0    0    0
C 71.22121267 9.79236947 -53.42482271     1    81   85   86   87
H 71.78195898 10.23293367 -55.35193006     6    84    0    0    0
H 69.41257306 8.94026614 -53.37952028     6    84    0    0    0
H 72.70180819 8.56663428 -52.76594042     6    84    0    0    0
H 94.85612418 15.61187045 -28.00697471     6     89    0    0    0
C 94.53490801 13.61586444 -27.57174432     1     88    90    91    92
H 95.87700755 12.92618570 -26.05993515     6     89    0    0    0
H 92.65718058 13.35273756 -26.54903004     6     89    0    0    0
C 94.76051970 11.80290030 -29.82903318     2     89    93    94    95
H 93.84518330 12.50052731 -31.42672237     6     92    0    0    0
H 96.72970193 12.28946800 -30.31109371     6     92    0    0    0
C 94.44924579 8.81524932 -29.35905616     2     92    96   97   98
H 96.17426217 7.89197977 -28.68040618     6     95    0    0    0
H 93.03939427 8.38938228 -27.68547968     6     95    0    0    0
C 93.66745586 7.23711613 -31.72804282     2     95   99   100   101
H 92.10743227 8.26518877 -32.80432024     6    98    0    0    0
H 95.35945985 7.06986739 -33.10256359     6    98    0    0    0
C 92.73663501 4.69671827 -30.90074754     2    98   102   103   104
H 94.23953932 3.81016535 -29.71975164     6    101    0    0    0
H 91.04625325 5.13788041 -29.67191115     6    101    0    0    0
C 91.74795630 3.02107044 -33.13402637     2    101   105   106   107
H 90.27065968 4.32562758 -33.99437606     6    104    0    0    0
H 93.29085467 2.65419202 -34.43836569     6    104    0    0    0
C 90.34531548 0.68200050 -32.15619081     2    104   108   109   110
H 91.61071386 -0.59538184 -31.28638797     6    107    0    0    0
H 88.95493591 1.20493686 -30.77489878     6    107    0    0    0
C 88.91960882 -0.87442057 -34.17506759     2    107   111   112   113
H 87.54135041 0.31552948 -35.15494715     6    110    0    0    0
H 90.17630535 -1.48118888 -35.72773059     6    110    0    0    0
C 88.06198305 -3.33940549 -33.12584201     2    110   114   115   116
H 89.63876277 -4.66723921 -33.04435100     6    113    0    0    0
H 87.29857742 -2.80694792 -31.21732464     6    113    0    0    0
C 86.00515730 -4.62927393 -34.53367026     2    113   117   118   119
H 84.33024610 -3.59981804 -34.36852287     6    116    0    0    0
H 86.47829985 -4.69933721 -36.55871429     6    116    0    0    0
C 85.83104554 -7.33321580 -33.42122604     2    116   120   121   122
H 87.47572746 -8.39864809 -34.15618641     6    119    0    0    0
H 86.23213015 -7.16552874 -31.37761626     6    119    0    0    0
C 83.41388672 -8.72638171 -34.14743200     1    119   123   124   125
H 83.32452314 -10.58828916 -33.31917650     6    122    0    0    0
H 83.54430864 -8.82546034 -36.29259684     6    122    0    0    0
H 81.65764929 -7.62119934 -33.71966803     6    122    0    0    0
H 103.07725208 24.07594168 -29.68555752     6     127    0    0    0
C 103.02986970 24.04173358 -31.66079425     1     126    128    129    130
H 104.84382051 24.52015262 -32.48302916     6     127    0    0    0
H 102.40345709 22.16136991 -32.27221967     6     127    0    0    0
C 100.95954444 25.83436599 -32.32910865     2     127    131    132    133
H 99.39003708 25.61249118 -31.17593087     6     130    0    0    0
H 101.52688113 27.90290686 -32.37010937     6     130    0    0    0
C 99.92076621 25.18904954 -35.01103370     2     130    134   135   136
H 101.27999234 24.55068040 -36.31832506     6     133    0    0    0
H 98.63945418 23.67027200 -34.49956476     6     133    0    0    0
C 98.34467791 27.41097152 -36.10577529     2     133   137   138   139
H 96.67468573 27.74154450 -34.95679872     6    136    0    0    0
H 99.36483713 29.19928235 -36.27875108     6    136    0    0    0
C 97.39145784 26.75178073 -38.81111867     2    136   140   141   142
H 98.92198055 26.25632217 -40.32495579     6    139    0    0    0
H 96.32942172 24.97014258 -39.00501685     6    139    0    0    0
C 95.63564512 28.99115778 -39.70474440     2    139   143   144   145
H 93.85385274 28.69841723 -38.65429204     6    142    0    0    0
H 96.13602486 30.84661929 -39.01701702     6    142    0    0    0
C 94.97485555 29.10520477 -42.44025541     2    142   146   147   148
H 96.56108647 28.78842404 -43.64989198     6    145    0    0    0
H 93.70232367 27.60834682 -42.92008831     6    145    0    0    0
C 93.81667949 31.57731445 -43.25397331     2    145   149   150   151
H 92.34264277 32.11052337 -41.92393664     6    148    0    0    0
H 95.42361418 32.88121398 -43.12249864     6    148    0    0    0
C 93.04834568 31.26344882 -46.11757173     2    148   152   153   154
H 94.49342242 31.00713810 -47.44283405     6    151    0    0    0
H 91.83646627 29.58120976 -46.44761956     6    151    0    0    0
C 91.30963989 33.39582571 -46.88716590     2    151   155   156   157
H 90.15330760 32.91301342 -48.51164082     6    154    0    0    0
H 89.91997770 33.68932505 -45.21425141     6    154    0    0    0
C 92.57214578 35.99294949 -47.19638114     2    154   158   159   160
H 93.13609752 36.50704993 -45.32511461     6    157    0    0    0
H 94.13834729 35.94219002 -48.57577317     6    157    0    0    0
C 90.67912022 38.11858188 -48.09379987     1    157   161   162   163
H 91.59756646 39.87764686 -48.25075919     6    160    0    0    0
H 88.96309423 38.31702502 -46.80934841     6    160    0    0    0
H 89.90320807 37.45229830 -49.86854665     6    160    0    0    0
H 100.56434166 2.36778444 -48.01008862     6     165    0    0    0
C 101.32168630 3.59636563 -46.45731874     1     164    166    167    168
H 100.03871698 3.37205331 -44.92100466     6     165    0    0    0
H 103.05434204 2.70993166 -45.82621182     6     165    0    0    0
C 101.81364758 6.26078841 -47.63081904     2     165    169    170    171
H 103.18507770 5.98166682 -48.98711758     6     168    0    0    0
H 99.92463591 6.93303271 -48.25105942     6     168    0    0    0
C 102.96329135 8.10590986 -45.60528647     2     168    172   173   174
H 101.82578369 7.95082459 -43.90557190     6     171    0    0    0
H 104.90586563 7.53216761 -45.20196518     6     171    0    0    0
C 102.72386539 10.70407625 -46.48981055     2     171   175   176   177
H 103.28113587 10.99296544 -48.52241161     6    174    0    0    0
H 100.71689823 11.27133490 -46.56671705     6    174    0    0    0
C 103.89675619 12.70437539 -44.79986918     2    174   178   179   180
H 103.38852676 12.22706034 -42.89532781     6    177    0    0    0
H 105.87186077 12.51814110 -44.81850682     6    177    0    0    0
C 103.13962813 15.43345991 -45.68863565     2    177   181   182   183
H 103.60269830 15.89041584 -47.63368426     6    180    0    0    0
H 101.08083128 15.55265037 -45.60515896     6    180    0    0    0
C 104.24692709 17.48328802 -43.96596350     2    180   184   185   186
H 103.28552458 17.71669191 -42.16663183     6    183    0    0    0
H 106.15450332 16.93541326 -43.33082369     6    183    0    0    0
C 104.76912601 19.93575637 -45.29043097     2    183   187   188   189
H 105.97364772 19.48150687 -46.88265954     6    186    0    0    0
H 103.06450137 20.57405065 -46.06829599     6    186    0    0    0
C 105.65995635 22.17757358 -43.70591257     2    186   190   191   192
H 104.56719271 22.32660724 -41.87769678     6    189    0    0    0
H 107.60714103 21.66287629 -43.13898940     6    189    0    0    0
C 105.77455765 24.87896370 -44.98753259     2    189   193   194   195
H 107.08012645 24.52720301 -46.51924688     6    192    0    0    0
H 104.07779475 25.41136458 -46.01723326     6    192    0    0    0
C 106.64483717 27.00373874 -43.31394297     2    192   196   197   198
H 105.75005883 26.75147101 -41.52974976     6    195    0    0    0
H 108.62642065 27.13616635 -42.88245000     6    195    0    0    0
C 106.13542094 29.72953819 -44.15362216     1    195   199   200   201
H 106.92094952 31.10626434 -42.71216443     6    198    0    0    0
H 104.13857736 30.03470027 -44.42368054     6    198    0    0    0
H 106.95879719 30.15292729 -46.01367662     6    198    0    0    0
H 97.51761867 14.36777037 -58.85790997     6     203    0    0    0
C 98.74749652 14.06998912 -60.50350713     1     202    204    205    206
H 98.80542989 15.82162558 -61.72639421     6     203    0    0    0
H 100.64560637 13.75167739 -59.69802443     6     203    0    0    0
C 97.66536421 11.94799233 -62.34694925     2     203    207    208    209
H 98.90140960 11.89751037 -63.96632075     6     206    0    0    0
H 97.75640728 10.15249958 -61.33874720     6     206    0    0    0
C 94.98045820 12.40212282 -63.50494183     2     206    210   211   212
H 94.52695042 10.50753458 -64.36335739     6     209    0    0    0
H 93.66647433 12.50139723 -61.76737498     6     209    0    0    0
C 94.56581267 14.75902213 -64.95386758     2     209   213   214   215
H 95.12318215 16.35096245 -63.75084144     6    212    0    0    0
H 95.98632638 15.02595280 -66.45923908     6    212    0    0    0
C 91.89294976 15.11171599 -66.05549951     2    212   216   217   218
H 91.25921725 13.37525760 -66.87634903     6    215    0    0    0
H 90.58629483 15.33195265 -64.58900264     6    215    0    0    0
C 91.57191327 17.39625441 -67.87849249     2    215   219   220   221
H 91.90015453 19.21995109 -66.97488310     6    218    0    0    0
H 92.96526687 17.26495254 -69.41156491     6    218    0    0    0
C 88.82525841 17.28216655 -69.02510830     2    218   222   223   224
H 88.70572531 15.62354084 -70.22742528     6    221    0    0    0
H 87.20729988 16.96074386 -67.72025292     6    221    0    0    0
C 88.24635315 19.64025657 -70.62394599     2    221   225   226   227
H 87.92178187 21.18243203 -69.23883199     6    224    0    0    0
H 90.00188079 20.09595627 -71.73709863     6    224    0    0    0
C 85.80672464 19.40590495 -72.21937975     2    224   228   229   230
H 85.96905435 17.87212276 -73.64645037     6    227    0    0    0
H 84.26605302 18.87283208 -70.96147362     6    227    0    0    0
C 85.25596822 21.91445746 -73.42780966     2    227   231   232   233
H 84.94126917 23.30306907 -71.94947628     6    230    0    0    0
H 86.93559141 22.75690171 -74.20342755     6    230    0    0    0
C 82.98922017 22.13181540 -75.07432468     2    230   234   235   236
H 83.70961708 21.45577103 -76.88307740     6    233    0    0    0
H 81.30689277 21.25378074 -74.27764584     6    233    0    0    0
C 82.57985353 24.91864573 -75.55825314     1    233   237   238   239
H 81.29603154 25.23504460 -77.00543418     6    236    0    0    0
H 84.30078004 25.70820837 -76.24057883     6    236    0    0    0
H 82.06135613 25.93137916 -73.85982243     6    236    0    0    0
H 64.33074914 2.89472770 -51.33242275     6     241    0    0    0
C 65.73722196 3.71436414 -52.57660306     1     240    242    243    244
H 65.73326288 2.73366898 -54.38643347     6     241    0    0    0
H 65.41025709 5.70330550 -52.73854134     6     241    0    0    0
C 68.34463869 3.28714115 -51.27690483     2     241    245    246    247
H 68.98394474 1.40098223 -51.35856259     6     244    0    0    0
H 69.55871679 4.53700252 -52.46243440     6     244    0    0    0
C 68.67469978 4.56364986 -48.68847673     2     244    248   249   250
H 70.81154237 4.84701808 -48.44123913     6     247    0    0    0
H 67.57858303 6.31133864 -48.96634958     6     247    0    0    0
C 67.73910411 2.90048685 -46.51000831     2     247   251   252   253
H 67.02763664 4.16235933 -45.16481348     6    250    0    0    0
H 66.11756166 1.84563997 -47.24422065     6    250    0    0    0
C 69.96666869 1.29051801 -45.45563315     2    250   254   255   256
H 70.52316522 0.04981437 -46.91082261     6    253    0    0    0
H 71.63440113 2.45216282 -45.13020060     6    253    0    0    0
C 69.45243547 -0.34271973 -43.12143518     2    253   257   258   259
H 71.04663213 -1.59881995 -42.72896467     6    256    0    0    0
H 69.12221697 0.88829830 -41.53570613     6    256    0    0    0
C 66.89019875 -1.76034064 -43.30321786     2    256   260   261   262
H 65.34539295 -0.48859283 -43.61235648     6    259    0    0    0
H 66.83323538 -2.96435303 -44.88877812     6    259    0    0    0
C 66.27399149 -3.14325973 -40.82575198     2    259   263   264   265
H 67.87022784 -4.37293225 -40.71224936     6    262    0    0    0
H 66.70413149 -2.03946996 -39.13762293     6    262    0    0    0
C 63.59857418 -4.05367784 -40.54809293     2    262   266   267   268
H 63.03591377 -4.88114847 -38.63247152     6    265    0    0    0
H 62.29986907 -2.60625743 -41.04960293     6    265    0    0    0
C 62.89321622 -6.25172233 -42.34843952     2    265   269   270   271
H 62.88041471 -5.60747163 -44.29088148     6    268    0    0    0
H 64.16736902 -7.73726679 -42.09672672     6    268    0    0    0
C 60.36557679 -7.50875164 -41.62329867     2    268   272   273   274
H 60.60783429 -8.57478400 -39.79612095     6    271    0    0    0
H 59.12993188 -6.09584489 -40.90181541     6    271    0    0    0
C 59.05388008 -8.98416481 -43.69871275     1    271   275   276   277
H 58.66957109 -7.72280279 -45.24780610     6    274    0    0    0
H 57.12876718 -9.88984836 -43.28292184     6    274    0    0    0
H 60.60797398 -10.28038066 -44.10057495     6    274    0    0    0
H 87.70438520 -0.64902491 -51.70957601     6     279    0    0    0
C 86.90343745 1.18728331 -52.45158357     1     278    280    281    282
H 85.85225075 2.44061555 -51.12233267     6     279    0    0    0
H 88.44535782 2.36180528 -53.26576583     6     279    0    0    0
C 85.25245913 0.28023755 -54.62548477     2     279    283    284    285
H 86.43832196 -0.87280248 -55.90408935     6     282    0    0    0
H 83.72829214 -0.88733322 -53.67990459     6     282    0    0    0
C 84.13429454 2.59624749 -56.18238122     2     282    286   287   288
H 82.95156281 3.74468487 -54.89659067     6     285    0    0    0
H 85.67236775 3.72138048 -56.82603129     6     285    0    0    0
C 82.46614149 1.80924023 -58.38537271     2     285   289   290   291
H 83.74078404 0.61378345 -59.61796747     6    288    0    0    0
H 80.69819683 0.67704983 -58.03907192     6    288    0    0    0
C 81.45656720 3.79611893 -60.21308179     2    288   292   293   294
H 80.00927539 4.89403328 -59.24807683     6    291    0    0    0
H 82.99349536 5.12869088 -60.35979570     6    291    0    0    0
C 80.45926517 2.89104894 -62.83716422     2    291   295   296   297
H 81.95853056 2.15102831 -64.19127145     6    294    0    0    0
H 79.18488734 1.37928054 -62.53646213     6    294    0    0    0
C 79.07515927 5.04280818 -64.15047590     2    294   298   299   300

   16   -1830.5202886908      2.09E-09 Convergence criterion met
 Total energy in the final basis set = -1828.26249649
 Total job time:  16.19s(wall), 29.16s(cpu)
        *  Thank you very much for using Q-Chem.  Have a nice day.  *

User input: 2 of 2

                  Welcome to Q-Chem
     A Quantum Leap Into The Future Of Chemistry

 Q-Chem 5.4 (devel), Q-Chem, Inc., Pleasanton, CA (2021)

 E. Epifanovsky,  A. T. B. Gilbert,  Xintian Feng,  Joonho Lee,  Yuezhi Mao,
 N. Mardirossian,  P. Pokhilko,  A. White,  M. Wormit,  M. P. Coons,
 A. L. Dempwolff,  Zhengting Gan,  D. Hait,  P. R. Horn,  L. D. Jacobson,
 I. Kaliman,  J. Kussmann,  A. W. Lange,  Ka Un Lao,  D. S. Levine,  Jie Liu,
 S. C. McKenzie,  A. F. Morrison,  K. Nanda,  F. Plasser,  D. R. Rehn,
 M. L. Vidal,  Zhi-Qiang You,  Ying Zhu,  B. Alam,  B. Albrecht,
 A. Aldossary,  E. Alguire,  J. H. Andersen,  D. Barton,  K. Begam,  A. Behn,
 Y. A. Bernard,  E. J. Berquist,  H. Burton,  A. Carreras,  K. Carter-Fenk,
 R. Chakraborty,  A. D. Chien,  K. D. Closser,  V. Cofer-Shabica,
 S. Dasgupta,  Jia Deng,  M. de Wergifosse,  M. Diedenhofen,  Hainam Do,
 S. Ehlert,  Po-Tung Fang,  S. Fatehi,  Qingguo Feng,  T. Friedhoff,
 J. Gayvert,  Qinghui Ge,  G. Gidofalvi,  M. Goldey,  J. Gomes,
 C. Gonzalez-Espinoza,  S. Gulania,  A. Gunina,  M. W. D. Hanson-Heine,
 P. H. P. Harbach,  A. W. Hauser,  M. F. Herbst,  M. Hernandez Vera,
 M. Hodecker,  Z. C. Holden,  S. Houck,  Xunkun Huang,  Kerwin Hui,
 B. C. Huynh,  M. Ivanov,  Hyunjun Ji,  Hanjie Jiang,  B. Kaduk,  S. Kaehler,
 K. Khistyaev,  Jaehoon Kim,  P. Klunzinger,  Z. Koczor-Benda,
 Joong Hoon Koh,  D. Kosenkov,  L. Koulias,  T. Kowalczyk,  C. M. Krauter,
 K. Kue,  A. Kunitsa,  T. Kus,  A. Landau,  K. V. Lawler,  D. Lefrancois,
 S. Lehtola,  Rain Li,  Yi-Pei Li,  Jiashu Liang,  M. Liebenthal,
 Hung-Hsuan Lin,  You-Sheng Lin,  Fenglai Liu,  Kuan-Yu Liu,
 M. Loipersberger,  A. Luenser,  A. Manjanath,  P. Manohar,  E. Mansoor,
 S. F. Manzer,  Shan-Ping Mao,  A. V. Marenich,  T. Markovich,  S. Mason,
 S. A. Maurer,  P. F. McLaughlin,  M. F. S. J. Menger,  J.-M. Mewes,
 S. A. Mewes,  P. Morgante,  J. W. Mullinax,  K. J. Oosterbaan,  G. Paran,
 Alexander C. Paul,  Suranjan K. Paul,  F. Pavosevic,  Zheng Pei,  S. Prager,
 E. I. Proynov,  E. Ramos,  B. Rana,  A. E. Rask,  A. Rettig,  R. M. Richard,
 F. Rob,  E. Rossomme,  T. Scheele,  M. Scheurer,  M. Schneider,
 N. Sergueev,  S. M. Sharada,  W. Skomorowski,  D. W. Small,  C. J. Stein,
 Yu-Chuan Su,  E. J. Sundstrom,  Zhen Tao,  J. Thirman,  T. Tsuchimochi,
 N. M. Tubman,  S. P. Veccham,  O. Vydrov,  J. Wenzel,  J. Witte,  A. Yamada,
 Kun Yao,  S. Yeganeh,  S. R. Yost,  A. Zech,  Igor Ying Zhang,  Xing Zhang,
 Yu Zhang,  D. Zuev,  A. Aspuru-Guzik,  A. T. Bell,  N. A. Besley,
 K. B. Bravaya,  B. R. Brooks,  D. Casanova,  Jeng-Da Chai,  S. Coriani,
 C. J. Cramer,  A. E. DePrince, III,  R. A. DiStasio Jr.,  A. Dreuw,
 B. D. Dunietz,  T. R. Furlani,  W. A. Goddard III,  S. Grimme,
 S. Hammes-Schiffer,  T. Head-Gordon,  W. J. Hehre,  Chao-Ping Hsu,
 T.-C. Jagau,  Yousung Jung,  A. Klamt,  Jing Kong,  D. S. Lambrecht,
 WanZhen Liang,  N. J. Mayhall,  C. W. McCurdy,  J. B. Neaton,
 C. Ochsenfeld,  J. A. Parkhill,  R. Peverati,  V. A. Rassolov,  Yihan Shao,
 L. V. Slipchenko,  T. Stauch,  R. P. Steele,  J. E. Subotnik,
 A. J. W. Thom,  A. Tkatchenko,  D. G. Truhlar,  T. Van Voorhis,
 T. A. Wesolowski,  K. B. Whaley,  H. L. Woodcock III,  P. M. Zimmerman,
 S. Faraji,  P. M. W. Gill,  M. Head-Gordon,  J. M. Herbert,  A. I. Krylov

 Additional authors for Version 5.4.1:
 S. Kotaru,  Shaozhi Li,  Xiangyuan Li,  F. Matz,  A. Molle,  Haisheng Ren,
 Yingli Su,  Hung-Yi Tsai,  C. Utku,  Fang Wang

 Contributors to earlier versions of Q-Chem not listed above:
 R. D. Adamson,  B. Austin,  R. Baer,  J. Baker,  G. J. O. Beran,
 K. Brandhorst,  S. T. Brown,  E. F. C. Byrd,  A. K. Chakraborty,
 G. K. L. Chan,  Chun-Min Chang,  Yunqing Chen,  C.-L. Cheng,
 Siu Hung Chien,  D. M. Chipman,  D. L. Crittenden,  H. Dachsel,
 R. J. Doerksen,  A. D. Dutoi,  R. G. Edgar,  J. Fosso-Tande,
 L. Fusti-Molnar,  D. Ghosh,  A. Ghysels,  A. Golubeva-Zadorozhnaya,
 J. Gonthier,  M. S. Gordon,  S. R. Gwaltney,  G. Hawkins,  J. E. Herr,
 A. Heyden,  S. Hirata,  E. G. Hohenstein,  G. Kedziora,  F. J. Keil,
 C. Kelley,  Jihan Kim,  R. A. King,  R. Z. Khaliullin,  P. P. Korambath,
 W. Kurlancheek,  A. Laurent,  A. M. Lee,  M. S. Lee,  S. V. Levchenko,
 Ching Yeh Lin,  D. Liotard,  E. Livshits,  R. C. Lochan,  I. Lotan,
 L. A. Martinez-Martinez,  P. E. Maslen,  N. Nair,  D. P. O'Neill,
 D. Neuhauser,  E. Neuscamman,  C. M. Oana,  R. Olivares-Amaya,  R. Olson,
 T. M. Perrine,  B. Peters,  P. A. Pieniazek,  A. Prociuk,  Y. M. Rhee,
 J. Ritchie,  M. A. Rohrdanz,  E. Rosta,  N. J. Russ,  H. F. Schaefer III,
 M. W. Schmidt,  N. E. Schultz,  S. Sharma,  N. Shenvi,  C. D. Sherrill,
 A. C. Simmonett,  A. Sodt,  T. Stein,  D. Stuck,  K. S. Thanthiriwatte,
 V. Vanovschi,  L. Vogt,  Tao Wang,  A. Warshel,  M. A. Watson,
 C. F. Williams,  Q. Wu,  X. Xu,  Jun Yang,  W. Zhang,  Yan Zhao

 Please cite Q-Chem as follows:
 Y. Shao et al., Mol. Phys. 113, 184-215 (2015)
 DOI: 10.1080/00268976.2014.952696

 Q-Chem 5.4.1 for Intel X86 EM64T Linux

 Parts of Q-Chem use Armadillo 9.900.5 (Nocturnal Misbehaviour).
 http://arma.sourceforge.net/

 Q-Chem begins on Wed Jun 22 16:41:40 2022

 Host: p09r14n13.grace.hpc.yale.internal
0

     Scratch files written to /home/tl686/scratch60/qchem_dev/scratch/qchem247431//
 Processing $rem in /home/tl686/qchem_dev/qchem/config/preferences:
 Processing $rem in /home/tl686/.qchemrc:
Applying user defined connections for MM calculations
The previous job contains 0 fragments, simply inherited here

 Checking the input file for inconsistencies... 	...done.

--------------------------------------------------------------
User input:
--------------------------------------------------------------

$molecule
READ
$end

$qm_atoms
1:11
$end

$force_field_params
NumAtomTypes 3
AtomType -1   0.0238     3.11   0.2868
AtomType -2   0.07124    3.30   0.6597
AtomType -3  -0.0760     3.09   0.1434
$end

$rem
     JOBTYPE  freq
     METHOD   bp86
     BASIS    def2-msvp
     MAX_SCF_CYCLES   800
     INPUT_BOHR TRUE
     SYM_IGNORE TRUE
     SCF_GUESS     read
     user_connect            true
     qm_mm_interface         ONIOM
     force_field             oplsaa
$end

--------------------------------------------------------------

    2   -1830.5202886903      5.89E-09 Convergence criterion met
 Total energy in the final basis set = -1828.26249649

                    Orbital Energies (a.u.)
 --------------------------------------------------------------

 Alpha MOs
 -- Occupied --
******** -29.6376 -25.5966 -25.5839 -25.5819 -18.8943 -18.8887 -18.8749
-18.8709 -18.8697 -10.0608 -10.0581 -10.0464 -10.0382 -10.0353  -3.3238
 -2.1578  -2.1339  -2.1309  -1.0811  -1.0600  -1.0454  -1.0447  -1.0394
 -0.5791  -0.5321  -0.5201  -0.5144  -0.5140  -0.4602  -0.4523  -0.4500
 -0.4413  -0.4352  -0.4295  -0.4241  -0.4170  -0.4155  -0.4077  -0.4067
 -0.4051  -0.3999  -0.3989  -0.3788  -0.2796  -0.2754  -0.2364  -0.2259

          Ground-State Mulliken Net Atomic Charges

     Atom                 Charge (a.u.)
  ----------------------------------------
      1 Fe                   -0.501170
      2 C                     0.223806
      3 C                     0.216116
      4 C                     0.195149
      5 C                     0.214530
      6 C                     0.212249
      7 O                    -0.123601
      8 O                    -0.128937
      9 O                    -0.083036
     10 O                    -0.117295
     11 O                    -0.107810
  ----------------------------------------
  Sum of atomic charges =     0.000000

                    Cartesian Multipole Moments
 -----------------------------------------------------------------
    Charge (ESU x 10^10)
                -0.0000
    Dipole Moment (Debye)
         X       0.2194155231      Y       0.1808890481      Z       0.1762023088
       Tot       0.3345314232
    Quadrupole Moments (Debye-Ang)
        XX     -51.3603     XY      12.1164     YY     -64.4048
        XZ       2.4168     YZ      -0.7291     ZZ     -77.4546
