 Q-Chem 5.4 (devel), Q-Chem, Inc., Pleasanton, CA (2021)
 Q-Chem 5.4.1 for Intel X86 EM64T Linux

User input:
--------------------------------------------------------------
$molecule
0   1
Fe 110.59104044 -5.56582062 37.77693903    -1  0   0   0   0
C 112.13042038 -8.00866065 39.73617047    -2  0   0   0   0
C 107.72341822 -6.49800078 36.04179814    -2  0   0   0   0
C 112.14780924 -2.57313606 37.92343887    -2  0   0   0   0
C 112.29758431 -6.56964203 34.88370712    -2  0   0   0   0
C 108.55972102 -4.30777214 40.10807521    -2  0   0   0   0
O 113.07199969 -9.49407405 40.99658780    -3  0   0   0   0
O 105.93001442 -7.12100265 34.97367869    -3  0   0   0   0
O 113.32034612 -0.68797611 38.26730099    -3  0   0   0   0
O 113.22275202 -7.28116260 32.97181633    -3  0   0   0   0
O 106.96472836 -3.46227670 41.37513797    -3  0   0   0   0
H 139.02316435 -4.44462243 46.85506646      6     13    0    0    0
C 138.28586138 -5.49627794 48.44766562     1     12    14    15    16
H 139.59587945 -5.53278954 49.91911893     6     13    0    0    0
H 136.54136443 -4.62649110 49.23228232     6     13    0    0    0
C 137.78331261 -8.30588358 47.76701473     2     13    17    18    19
H 139.65265104 -9.18290459 47.40806835     6     16    0    0    0
H 137.36881624 -9.28227241 49.55678455     6     16    0    0    0
C 135.70746145 -8.85827874 45.80594670     2     16    20   21   22
H 134.00544888 -8.42952930 46.83343022     6     19    0    0    0
H 135.93553496 -7.48749445 44.41505225     6     19    0    0    0
C 135.80332933 -11.60128246 44.68735647     2     19   23   24   25
H 137.19164187 -11.86493162 43.18288386     6    22    0    0    0
H 136.07908081 -13.14710710 46.06472412     6    22    0    0    0
C 133.18300183 -12.21879787 43.64923246     2    22   26   27   28
H 131.80433464 -12.13795889 45.31965466     6    25    0    0    0
H 132.47784325 -10.76927501 42.35941919     6    25    0    0    0
C 132.93972322 -14.93659797 42.51472624     2    25   29   30   31
H 134.30604619 -15.11792593 40.93121645     6    28    0    0    0
H 133.63225015 -16.39786026 43.78820389     6    28    0    0    0
C 130.30643140 -15.54622598 41.54768147     2    28   32   33   34
H 129.02828273 -15.37297829 43.18734630     6    31    0    0    0
H 129.72783780 -14.05570590 40.12934233     6    31    0    0    0
C 130.23754886 -18.20234948 40.51432600     2    31   35   36   37
H 131.93258749 -18.69194570 39.58328630     6    34    0    0    0
H 129.99386081 -19.48080052 42.12573970     6    34    0    0    0
C 128.09312626 -18.42094993 38.58436404     2    34   38   39   40
H 126.08313297 -18.26486006 39.25342746     6    37    0    0    0
H 128.07512010 -16.78419278 37.47839876     6    37    0    0    0
C 128.10058964 -20.94367793 37.00111132     2    37   41   42   43
H 129.21746198 -20.66498008 35.32153508     6    40    0    0    0
H 128.98709798 -22.26380235 38.34982629     6    40    0    0    0
C 125.43429983 -21.91645489 36.25777323     2    40   44   45   46
H 124.19122967 -22.13660594 37.94696224     6    43    0    0    0
H 124.49693169 -20.53801703 35.07068957     6    43    0    0    0
C 125.62635639 -24.41254847 34.95224962     1    43   47   48   49
H 127.17121992 -24.38662849 33.48277483     6    46    0    0    0
H 123.85858007 -24.76516531 33.93546045     6    46    0    0    0
H 126.03660115 -25.75738546 36.42696879     6    46    0    0    0
H 117.21837848 -17.01268255 38.32740539     6     51    0    0    0
C 116.17349626 -15.17078782 38.22670568     1     50    52    53    54
H 114.08752567 -15.76186088 38.08262052     6     51    0    0    0
H 116.57482799 -14.07484198 39.99614153     6     51    0    0    0
C 117.16922585 -13.50889352 36.04890982     2     51    55    56    57
H 116.07804996 -11.77658319 36.27499602     6     54    0    0    0
H 119.15405191 -12.94177828 36.44563650     6     54    0    0    0
C 116.77471637 -14.83289851 33.47048457     2     54    58   59   60
H 114.81132126 -15.39031774 33.30668202     6     57    0    0    0
H 117.12624985 -13.51209753 32.04310575     6     57    0    0    0
C 118.25544011 -17.16118538 32.82285137     2     57   61   62   63
H 120.09379741 -17.14291320 33.62376570     6    60    0    0    0
H 117.53745566 -18.82309364 33.84831607     6    60    0    0    0
C 118.45239489 -17.99213833 30.01956495     2    60   64   65   66
H 116.58215711 -17.99261554 28.91341129     6    63    0    0    0
H 119.53065128 -16.45170953 29.23546930     6    63    0    0    0
C 119.90799615 -20.49522338 29.97408432     2    63   67   68   69
H 121.26872905 -20.25948324 28.34748765     6    66    0    0    0
H 121.42007138 -20.80214234 31.48281845     6    66    0    0    0
C 118.31103702 -22.86553299 29.53199830     2    66   70   71   72
H 116.81385623 -22.88158508 31.03122659     6    69    0    0    0
H 117.31666406 -22.69904627 27.82707189     6    69    0    0    0
C 119.86952842 -25.36424867 29.63694705     2    69   73   74   75
H 121.22981210 -25.18877419 28.22849260     6    72    0    0    0
H 120.83778049 -25.52760871 31.46541010     6    72    0    0    0
C 118.23567310 -27.76111565 29.26413000     2    72   76   77   78
H 116.55444241 -27.49109907 30.48740646     6    75    0    0    0
H 117.42725481 -27.89150274 27.34161627     6    75    0    0    0
C 119.90438783 -30.16244048 30.01119098     2    75   79   80   81
H 121.51981453 -30.37582199 28.78538732     6    78    0    0    0
H 120.92625278 -29.78662768 31.75835230     6    78    0    0    0
C 118.33054515 -32.50422177 30.56286031     2    78   82   83   84
H 116.90402650 -31.85060020 31.83870612     6    81    0    0    0
H 117.30613268 -33.19980220 28.80994872     6    81    0    0    0
C 119.60597706 -34.78304423 31.75098806     1    81   85   86   87
H 118.19464000 -35.80963462 32.73729545     6    84    0    0    0
H 121.22113469 -34.09082897 32.80165899     6    84    0    0    0
H 120.35437239 -35.79985541 30.11846227     6    84    0    0    0
H 141.56179217 2.91325697 28.30505233     6     89    0    0    0
C 141.23269327 1.23698700 29.40958278     1     88    90    91    92
H 142.02748041 1.46878761 31.26213638     6     89    0    0    0
H 139.20786568 1.07762790 29.71953883     6     89    0    0    0
C 142.56845404 -1.04669703 28.23610654     2     89    93    94    95
H 141.64604445 -1.49239924 26.30367224     6     92    0    0    0
H 144.51164049 -0.56067437 27.81066453     6     92    0    0    0
C 142.00028579 -3.37014370 29.85035715     2     92    96   97   98
H 143.02661415 -3.39070151 31.65610801     6     95    0    0    0
H 140.05877292 -3.35500635 30.57962258     6     95    0    0    0
C 142.59266198 -5.81533860 28.40200512     2     95   99   100   101
H 141.47613635 -5.90402141 26.63603638     6    98    0    0    0
H 144.65841275 -5.75378435 28.04624248     6    98    0    0    0
C 142.10099502 -8.18793439 29.85303069     2    98   102   103   104
H 142.68741837 -8.09916410 31.77401925     6    101    0    0    0
H 140.12647161 -8.52174689 29.88876338     6    101    0    0    0
C 143.36808107 -10.37628716 28.81973983     2    101   105   106   107
H 143.56462628 -10.23460905 26.80046106     6    104    0    0    0
H 145.38940115 -10.28277900 29.44895529     6    104    0    0    0
C 142.44527349 -12.95304484 29.72339806     2    104   108   109   110
H 142.60192021 -13.29648721 31.79000716     6    107    0    0    0
H 140.48644666 -13.09844139 29.29598919     6    107    0    0    0
C 143.89565086 -15.16961266 28.52309100     2    107   111   112   113
H 143.59515868 -15.20082498 26.44759260     6    110    0    0    0
H 145.84694322 -14.87351533 29.07822461     6    110    0    0    0
C 143.15971653 -17.98036786 29.46205098     2    110   114   115   116
H 143.33350559 -18.03981958 31.46616511     6    113    0    0    0
H 141.09027859 -18.25753827 29.24952242     6    113    0    0    0
C 144.70894594 -20.17316269 28.30220036     2    113   117   118   119
H 144.23986064 -20.07858436 26.37498773     6    116    0    0    0
H 146.80644733 -20.16311948 28.27560195     6    116    0    0    0
C 143.90862093 -22.82832258 29.33569544     2    116   120   121   122
H 144.81383746 -24.37007931 28.36212935     6    119    0    0    0
H 144.20554469 -23.13685510 31.43511365     6    119    0    0    0
C 140.93494561 -23.12670641 29.15233433     1    119   123   124   125
H 140.21558279 -25.18177807 29.33461302     6    122    0    0    0
H 140.22200220 -22.49016970 27.40957557     6    122    0    0    0
H 139.89400321 -22.08191821 30.65122309     6    122    0    0    0
H 129.30190197 22.55082799 17.70586005     6     127    0    0    0
C 129.04743158 20.54493762 18.24380894     1     126    128    129    130
H 127.53912857 19.73425220 17.00694743     6     127    0    0    0
H 130.79804885 19.51686395 17.75036670     6     127    0    0    0
C 128.22350224 20.43190402 21.10053854     2     127    131    132    133
H 129.77052412 21.28388815 22.09097118     6     130    0    0    0
H 126.77215289 21.90960634 21.60168960     6     130    0    0    0
C 127.39621146 17.79615496 22.06023354     2     130    134   135   136
H 126.09249154 17.10115608 20.74338724     6     133    0    0    0
H 128.97334800 16.69337009 22.09490816     6     133    0    0    0
C 126.15231429 18.12425056 24.66494931     2     133   137   138   139
H 127.40125626 18.66768942 26.05546424     6    136    0    0    0
H 124.60408321 19.61167337 24.86309817     6    136    0    0    0
C 124.90790910 15.61515066 25.35124735     2    136   140   141   142
H 123.01840532 15.77029712 24.50811182     6    139    0    0    0
H 126.10112631 13.92792638 24.85837284     6    139    0    0    0
C 124.59785574 15.58141737 28.24792854     2    139   143   144   145
H 126.29381735 15.61220139 29.27951110     6    142    0    0    0
H 123.40691505 17.20273668 28.77108261     6    142    0    0    0
C 122.87194594 13.23721263 29.19774969     2    142   146   147   148
H 121.16848688 13.15785189 28.13226353     6    145    0    0    0
H 123.87246468 11.30977399 29.09800933     6    145    0    0    0
C 122.25381713 13.61052367 32.01731534     2    145   149   150   151
H 123.95727353 14.36471730 33.05892058     6    148    0    0    0
H 120.91869320 14.98277505 32.33408844     6    148    0    0    0
C 121.35212727 11.06628262 33.20932357     2    148   152   153   154
H 119.58847551 10.71627183 32.01440651     6    151    0    0    0
H 122.76090138 9.64476233 32.73887588     6    151    0    0    0
C 120.66139437 11.40046073 36.01890219     2    151   155   156   157
H 120.78394978 9.50128233 36.58089362     6    154    0    0    0
H 122.12393952 12.48239648 36.92621781     6    154    0    0    0
C 117.99582736 12.31530278 36.74000464     2    154   158   159   160
H 117.53863158 13.82861728 35.58269295     6    157    0    0    0
H 116.51466279 10.97934092 36.53160210     6    157    0    0    0
C 117.90058154 13.13502137 39.54694737     1    157   161   162   163
H 116.08604090 13.88792538 39.96283985     6    160    0    0    0
H 118.89662630 15.00577386 39.89786030     6    160    0    0    0
H 118.54110612 11.67935016 40.92132854     6    160    0    0    0
H 127.18043193 -12.00093827 3.54613762     6     165    0    0    0
C 128.16843580 -10.68553689 4.69247785     1     164    166    167    168
H 128.39722727 -11.37559292 6.58533144     6     165    0    0    0
H 130.12370196 -11.04519970 4.06167321     6     165    0    0    0
C 127.35269604 -8.00357524 4.34937903     2     165    169    170    171
H 127.32987603 -7.45599987 2.44819976     6     168    0    0    0
H 125.49023697 -7.63388369 5.24064711     6     168    0    0    0
C 129.36136549 -6.18441898 5.54562065     2     168    172   173   174
H 130.00552319 -6.70213943 7.36419310     6     171    0    0    0
H 131.01714491 -6.52647972 4.37542849     6     171    0    0    0
C 128.43386670 -3.41184810 5.61581020     2     171   175   176   177
H 127.42323074 -2.97361375 3.81258472     6    174    0    0    0
H 126.73674599 -3.26808540 6.82800949     6    174    0    0    0
C 130.49117987 -1.55126745 6.47395601     2    174   178   179   180
H 130.87234434 -1.78965149 8.45924408     6    177    0    0    0
H 132.24921807 -1.86444871 5.61875492     6    177    0    0    0
C 129.90801673 1.12411783 5.80226798     2    177   181   182   183
H 130.01411192 1.46313081 3.72738698     6    180    0    0    0
H 127.92078015 1.47181784 6.46056194     6    180    0    0    0
C 131.38126225 3.34874072 7.14421948     2    180   184   185   186
H 131.27290851 3.09223846 9.21284487     6    183    0    0    0
H 133.39833340 3.21657148 6.73321274     6    183    0    0    0
C 130.32982166 5.94738320 6.35803938     2    183   187   188   189
H 130.57228504 6.38456827 4.38257777     6    186    0    0    0
H 128.32425404 5.98303145 6.76405666     6    186    0    0    0
C 131.42766265 8.30903336 7.78455745     2    186   190   191   192
H 130.99110978 7.92847826 9.70671045     6    189    0    0    0
H 133.44649464 8.24067080 7.55148076     6    189    0    0    0
C 130.15580650 10.70644632 6.88954030     2    189   193   194   195
H 131.03521405 11.19917807 5.07899184     6    192    0    0    0
H 128.19421804 10.26127285 6.46303192     6    192    0    0    0
C 130.62247273 13.06558338 8.67938135     2    192   196   197   198
H 130.39459189 12.47624954 10.66279020     6    195    0    0    0
H 132.43862000 13.98205626 8.54180586     6    195    0    0    0
C 128.62935052 14.97440560 7.91107191     1    195   199   200   201
H 128.24262019 16.13534037 9.64939630     6    198    0    0    0
H 126.75369468 14.21616230 7.58635707     6    198    0    0    0
H 129.06201052 16.15346673 6.36646376     6    198    0    0    0
H 121.73080343 -11.68136903 13.78918186     6     203    0    0    0
C 122.07902550 -9.84007071 12.86455843     1     202    204    205    206
H 120.37391597 -8.77155813 12.94076366     6     203    0    0    0
H 123.59699301 -8.78835435 13.94678217     6     203    0    0    0
C 122.94228329 -10.39568169 10.10651214     2     203    207    208    209
H 123.16443125 -8.70417904 8.71284242     6     206    0    0    0
H 124.98254886 -10.74885613 10.22938119     6     206    0    0    0
C 121.57701841 -12.53114819 8.84074002     2     206    210   211   212
H 122.67863321 -13.17119694 7.34926469     6     209    0    0    0
H 121.43548514 -14.07601833 10.34622216     6     209    0    0    0
C 118.94161747 -11.93479138 7.68509005     2     209   213   214   215
H 117.85557065 -10.82027702 9.05686032     6    212    0    0    0
H 118.95730656 -10.80985675 6.06922274     6    212    0    0    0
C 117.37030309 -14.33913154 7.13622729     2    212   216   217   218
H 118.39469728 -15.23085896 5.52879453     6    215    0    0    0
H 117.70928076 -15.61853995 8.73729091     6    215    0    0    0
C 114.77599208 -13.73583084 6.52606109     2    215   219   220   221
H 114.03438355 -12.81500753 8.34659017     6    218    0    0    0
H 114.84958984 -12.44174583 4.94598341     6    218    0    0    0
C 113.10943148 -16.12805292 5.96181975     2    218   222   223   224
H 113.77906905 -16.76743989 4.20737578     6    221    0    0    0
H 113.41692547 -17.58632878 7.36720046     6    221    0    0    0
C 110.33980773 -15.70885873 5.94939831     2    221   225   226   227
H 110.13949192 -14.80792088 7.66620523     6    224    0    0    0
H 109.73449175 -14.29929572 4.55331402     6    224    0    0    0
C 109.03331915 -18.33511304 5.54015451     2    224   228   229   230
H 109.46083528 -19.06831361 3.72742579     6    227    0    0    0
H 109.61962360 -19.75786504 6.90775321     6    227    0    0    0
C 106.24503772 -18.03764402 5.97239091     2    227   231   232   233
H 105.97155411 -17.67295060 7.94604340     6    230    0    0    0
H 105.68929151 -16.54639999 4.96132084     6    230    0    0    0
C 104.41164622 -20.31566768 5.53262072     2    230   234   235   236
H 104.29468531 -20.69302971 3.53848511     6    233    0    0    0
H 105.08274308 -21.91374981 6.51438602     6    233    0    0    0
C 101.83852354 -19.55270041 6.50157155     1    233   237   238   239
H 100.45017472 -20.93805164 5.88305727     6    236    0    0    0
H 101.35300488 -17.53995918 5.96551423     6    236    0    0    0
H 101.87964798 -19.72842412 8.61409305     6    236    0    0    0
H 130.15736216 -33.74628761 28.16664791     6     241    0    0    0
C 129.96321407 -32.93896302 26.31783927     1     240    242    243    244
H 131.43337299 -33.83790888 25.13647922     6     241    0    0    0
H 128.32251593 -33.60170889 25.27818461     6     241    0    0    0
C 130.32447571 -30.03834610 26.27880035     2     241    245    246    247
H 131.98416334 -29.80742947 27.44277021     6     244    0    0    0
H 130.87902661 -29.20355860 24.29489092     6     244    0    0    0
C 128.06156976 -28.70880204 27.41153266     2     244    248   249   250
H 128.62377215 -26.91064122 28.16737598     6     247    0    0    0
H 126.57946753 -28.27014299 25.96969614     6     247    0    0    0
C 126.67718659 -29.91357505 29.55661548     2     247   251   252   253
H 125.06632954 -28.73864631 29.91608388     6    250    0    0    0
H 125.79895038 -31.64086185 28.90119819     6    250    0    0    0
C 128.24080297 -30.08988759 31.99834625     2    250   254   255   256
H 130.13146583 -30.78873991 31.68476879     6    253    0    0    0
H 128.42245440 -28.19250801 32.89062700     6    253    0    0    0
C 126.91102915 -31.62730972 34.08108952     2    253   257   258   259
H 127.98227312 -31.42847365 35.83812875     6    256    0    0    0
H 125.11505936 -30.74191114 34.46044702     6    256    0    0    0
C 126.94772455 -34.48605060 33.57671014     2    256   260   261   262
H 125.92142073 -34.82684143 31.80234561     6    259    0    0    0
H 128.98758094 -34.96380432 33.11607013     6    259    0    0    0
C 126.02898396 -36.18156008 35.76167904     2    259   263   264   265
H 127.56851635 -36.27275755 37.22546007     6    262    0    0    0
H 124.24617776 -35.19327670 36.47464324     6    262    0    0    0
C 125.19269810 -38.77984042 34.83010408     2    262   266   267   268
H 124.22184684 -39.77970537 36.32241812     6    265    0    0    0
H 124.08936455 -38.58599697 33.08003204     6    265    0    0    0
C 127.36287556 -40.27600184 33.80887260     2    265   269   270   271
H 128.06129290 -39.30535640 32.27117131     6    268    0    0    0
H 128.66149701 -40.31321616 35.26442653     6    268    0    0    0
C 126.57292979 -43.07214256 33.13352067     2    268   272   273   274
H 125.88983483 -44.19379453 34.77920544     6    271    0    0    0
H 124.90589353 -43.00101855 31.80351227     6    271    0    0    0
C 128.69142561 -44.45465100 31.77152252     1    271   275   276   277
H 129.00015017 -43.72877143 29.87193054     6    274    0    0    0
H 128.61338489 -46.49908322 31.72411372     6    274    0    0    0
H 130.36181990 -43.76480039 32.63257342     6    274    0    0    0
H 136.05154657 -11.77986878 17.56776260     6     279    0    0    0
C 135.30677229 -10.81552466 15.77506760     1     278    280    281    282
H 135.58544435 -8.71550749 15.75566275     6     279    0    0    0
H 136.52720232 -11.64756689 14.32287805     6     279    0    0    0
C 132.52203167 -11.47526325 14.96747135     2     279    283    284    285
H 131.28791867 -10.53709755 16.46771197     6     282    0    0    0
H 132.06068882 -10.64610407 13.13244937     6     282    0    0    0
C 131.93845327 -14.32767378 14.90989204     2     282    286   287   288
H 133.49649143 -15.28215250 13.94975060     6     285    0    0    0
H 132.15422730 -14.77598494 16.91604650     6     285    0    0    0
C 129.28614371 -15.01698741 13.92754888     2     285   289   290   291
H 127.97649296 -13.56925218 14.58410814     6    288    0    0    0
H 129.13333493 -14.76046964 11.94068011     6    288    0    0    0
C 128.28505690 -17.62410736 14.58636612     2    288   292   293   294
H 129.46255863 -18.86983246 13.37195951     6    291    0    0    0
H 128.50618317 -18.12617495 16.62991355     6    291    0    0    0
C 125.70226202 -18.40759109 13.62580446     2    291   295   296   297
H 124.20975682 -16.99508841 13.86226112     6    294    0    0    0
H 125.65322348 -18.59117249 11.52824012     6    294    0    0    0
C 124.77998149 -20.97030015 14.64608021     2    294   298   299   300

   17   -1830.5217297279      6.77E-09 Convergence criterion met
 Total energy in the final basis set = -1828.37517092

                    Orbital Energies (a.u.)
 --------------------------------------------------------------

 Alpha MOs
 -- Occupied --
******** -29.6351 -25.5953 -25.5824 -25.5781 -18.8901 -18.8834 -18.8813
-18.8804 -18.8696 -10.0616 -10.0521 -10.0478 -10.0422 -10.0410  -3.3192
 -2.1556  -2.1308  -2.1208  -1.0624  -1.0617  -1.0536  -1.0498  -1.0295
 -0.5738  -0.5284  -0.5209  -0.5165  -0.5120  -0.4558  -0.4458  -0.4366
 -0.4335  -0.4305  -0.4280  -0.4235  -0.4231  -0.4185  -0.4121  -0.4043
 -0.4027  -0.3965  -0.3926  -0.3784  -0.2779  -0.2693  -0.2292  -0.2248

          Ground-State Mulliken Net Atomic Charges

     Atom                 Charge (a.u.)
  ----------------------------------------
      1 Fe                   -0.471860
      2 C                     0.231285
      3 C                     0.207369
      4 C                     0.212199
      5 C                     0.221090
      6 C                     0.175808
      7 O                    -0.094198
      8 O                    -0.097723
      9 O                    -0.142253
     10 O                    -0.122141
     11 O                    -0.119577
  ----------------------------------------
  Sum of atomic charges =     0.000000

                    Cartesian Multipole Moments
 -----------------------------------------------------------------
    Charge (ESU x 10^10)
                -0.0000
    Dipole Moment (Debye)
         X      -0.0922340355      Y      -0.4048810664      Z      -0.1165199652
       Tot       0.4312918936
    Quadrupole Moments (Debye-Ang)
        XX     -80.6520     XY     -23.9658     YY     -67.7784
        XZ      -8.8029     YZ      -8.2820     ZZ     -73.6619

 Total job time:  29.37s(wall), 26.31s(cpu)
        *  Thank you very much for using Q-Chem.  Have a nice day.  *
