 Q-Chem 5.4 (devel), Q-Chem, Inc., Pleasanton, CA (2021)
 Q-Chem 5.4.1 for Intel X86 EM64T Linux

User input:
--------------------------------------------------------------
$molecule
0   1
 Fe 1475.93565545 68.10164964 59.52402686    -1  0   0   0   0
C 1476.97031696 67.12465982 56.43527846    -2  0   0   0   0
C 1474.76900173 69.37316399 62.43437065    -2  0   0   0   0
C 1473.11740436 69.17125822 58.08423454    -2  0   0   0   0
C 1476.90585792 65.13238545 61.11444119    -2  0   0   0   0
C 1478.37563633 70.61199907 59.33379429    -2  0   0   0   0
O 1477.59233361 66.66028921 54.42599251    -3  0   0   0   0
O 1474.09602758 70.18820538 64.33200881    -3  0   0   0   0
O 1471.52899343 70.38067211 57.18969611    -3  0   0   0   0
O 1477.72261633 63.29522426 61.91126736    -3  0   0   0   0
O 1479.87388200 72.15681165 59.44013343    -3  0   0   0   0
H 1457.84024844 53.29567609 51.00910223      6     13    0    0    0
C 1457.70309072 53.48891798 48.96093111     1     12    14    15    16
H 1455.62691811 53.53397020 48.59390545     6     13    0    0    0
H 1458.68027960 55.28031458 48.27550227     6     13    0    0    0
C 1459.40153881 51.38003933 47.72817487     2     13    17    18    19
H 1458.37755504 49.53745952 48.10635714     6     16    0    0    0
H 1459.06357457 51.56140974 45.69306298     6     16    0    0    0
C 1462.18130045 51.63138315 48.52174669     2     16    20   21   22
H 1462.86890112 53.49430669 47.89458187     6     19    0    0    0
H 1462.13841884 51.56547110 50.58713322     6     19    0    0    0
C 1463.81328808 49.66298074 47.16845620     2     19   23   24   25
H 1463.30202710 47.74614328 47.98650998     6    22    0    0    0
H 1463.46602477 49.46741631 45.15908371     6    22    0    0    0
C 1466.70440628 50.05724583 48.01296875     2    22   26   27   28
H 1467.43012609 51.84139316 47.37608945     6    25    0    0    0
H 1466.68883755 50.24013729 50.07305703     6    25    0    0    0
C 1468.58198188 47.96900060 47.14769211     2    25   29   30   31
H 1467.74127593 46.15813550 47.49310776     6    28    0    0    0
H 1469.03329888 48.36580669 45.13936926     6    28    0    0    0
C 1470.93073449 47.92104155 48.80473283     2    28   32   33   34
H 1471.82596295 49.67179331 48.80335653     6    31    0    0    0
H 1470.25493863 47.81511579 50.77311629     6    31    0    0    0
C 1472.81583222 45.74307328 48.36003131     2    31   35   36   37
H 1471.95686916 43.83729303 48.52250435     6    34    0    0    0
H 1473.40072064 45.88369594 46.25162970     6    34    0    0    0
C 1475.26101127 45.82919203 50.04341000     2    34   38   39   40
H 1475.97875894 47.72129781 49.98133422     6    37    0    0    0
H 1474.64688728 45.60473729 52.11772287     6    37    0    0    0
C 1477.38732107 43.79152781 49.55782658     2    37   41   42   43
H 1476.46835867 42.05183740 49.93008334     6    40    0    0    0
H 1477.85263666 44.16874250 47.61721847     6    40    0    0    0
C 1479.76037445 44.08341078 51.33045981     2    40   44   45   46
H 1480.27327043 45.99843583 51.43212296     6    43    0    0    0
H 1479.22498511 43.31768080 53.15824657     6    43    0    0    0
C 1482.06418681 42.87057669 49.98898132     1    43   47   48   49
H 1481.46125263 41.23628717 49.04087205     6    46    0    0    0
H 1483.31040710 42.41488514 51.46342228     6    46    0    0    0
H 1482.67116799 44.00630308 48.43418112     6    46    0    0    0
H 1480.81700983 59.69874020 54.96575191     6     51    0    0    0
C 1479.21749838 60.37391686 55.96134601     1     50    52    53    54
H 1479.98618281 61.57440460 57.58940219     6     51    0    0    0
H 1478.17577268 61.61626304 54.69512735     6     51    0    0    0
C 1477.23956896 58.44495575 56.87708169     2     51    55    56    57
H 1475.79744726 59.42694349 57.94531488     6     54    0    0    0
H 1476.24398108 57.48557287 55.24571359     6     54    0    0    0
C 1478.31294042 56.16132163 58.36093315     2     54    58   59   60
H 1479.20992518 56.84448593 60.10387003     6     57    0    0    0
H 1476.80481897 54.96478820 58.94226766     6     57    0    0    0
C 1479.98670735 54.35731484 56.82678215     2     57   61   62   63
H 1479.20396212 54.24521890 54.92486090     6    60    0    0    0
H 1481.81872511 55.33132748 56.71097319     6    60    0    0    0
C 1480.30432619 51.70364335 57.87996324     2    60   64   65   66
H 1481.26476406 51.57966832 59.71022241     6    63    0    0    0
H 1478.46916910 50.77383000 58.25611953     6    63    0    0    0
C 1481.39950166 49.92245417 55.97301170     2    63   67   68   69
H 1481.33929514 48.09632663 56.86937903     6    66    0    0    0
H 1480.07887809 49.57058211 54.30792714     6    66    0    0    0
C 1484.10241570 50.41310126 55.14159711     2    66   70   71   72
H 1484.33168856 52.26085486 54.33442593     6    69    0    0    0
H 1485.42710787 50.32511368 56.82438680     6    69    0    0    0
C 1485.11280601 48.49311173 53.08833651     2    69   73   74   75
H 1484.96790016 46.48348981 53.85272267     6    72    0    0    0
H 1484.14300151 48.52826010 51.20710902     6    72    0    0    0
C 1487.76320023 49.15417108 52.46390136     2    72   76   77   78
H 1487.74811136 51.18516185 51.76629553     6    75    0    0    0
H 1488.97426469 49.04472034 54.19332840     6    75    0    0    0
C 1489.23668174 47.49756944 50.50292797     2    75   79   80   81
H 1489.05706133 45.53444375 51.32790696     6    78    0    0    0
H 1488.22295862 47.69149776 48.71084626     6    78    0    0    0
C 1491.89204013 48.34059062 50.09657052     2    78   82   83   84
H 1491.94959039 50.32265712 49.70128679     6    81    0    0    0
H 1493.10778732 48.16001011 51.80826064     6    81    0    0    0
C 1493.20689405 47.09608236 47.79761494     1    81   85   86   87
H 1495.20481883 47.64762386 47.47304060     6    84    0    0    0
H 1492.20406915 47.47641462 46.10667892     6    84    0    0    0
H 1493.19278450 45.01978143 48.04592453     6    84    0    0    0
H 1460.33659048 48.00438715 66.64797798     6     89    0    0    0
C 1460.97020919 45.99005960 66.85811765     1     88    90    91    92
H 1462.48373446 45.94368671 68.33274941     6     89    0    0    0
H 1459.30102757 44.97173005 67.67098531     6     89    0    0    0
C 1461.83198518 44.67921016 64.37372401     2     89    93    94    95
H 1460.41644324 44.89762964 62.92029788     6     92    0    0    0
H 1463.46426300 45.63203896 63.68879046     6     92    0    0    0
C 1462.49263673 41.92033427 64.82657655     2     92    96   97   98
H 1463.98368182 41.63433310 66.34218549     6     95    0    0    0
H 1460.68626748 41.13819377 65.36854058     6     95    0    0    0
C 1463.39369056 40.67318298 62.48703946     2     95   99   100   101
H 1461.90685465 40.59671865 61.21836305     6    98    0    0    0
H 1464.98050332 41.72199129 61.73057085     6    98    0    0    0
C 1464.22883863 38.06271181 63.18709582     2    98   102   103   104
H 1466.08677821 38.29374673 63.97022914     6    101    0    0    0
H 1462.99515028 37.03754649 64.49123619     6    101    0    0    0
C 1464.65604758 36.44892492 60.78276138     2    101   105   106   107
H 1462.83562898 35.96818101 59.99779845     6    104    0    0    0
H 1465.23355485 37.67603441 59.32447755     6    104    0    0    0
C 1466.29567801 34.19651242 61.09474113     2    104   108   109   110
H 1468.26761041 34.62821155 61.74119734     6    107    0    0    0
H 1465.40598045 33.11558559 62.58661829     6    107    0    0    0
C 1466.07158304 32.57652224 58.73789997     2    107   111   112   113
H 1464.67872863 31.03988737 59.24405068     6    110    0    0    0
H 1465.38037039 33.52149686 57.01657842     6    110    0    0    0
C 1468.50943256 31.22064264 58.25148226     2    110   114   115   116
H 1469.95676813 32.82787936 58.24857388     6    113    0    0    0
H 1469.15884116 29.94631957 59.65855748     6    113    0    0    0
C 1468.40752397 29.60336223 55.77192798     2    113   117   118   119
H 1467.08968386 28.08234126 56.01646986     6    116    0    0    0
H 1467.45518289 30.64141897 54.23180209     6    116    0    0    0
C 1470.85802667 28.80524488 54.66466969     2    116   120   121   122
H 1470.54638655 27.90992520 52.82705169     6    119    0    0    0
H 1471.86256666 30.55658059 54.25667320     6    119    0    0    0
C 1472.69366460 27.49625225 56.40084253     1    119   123   124   125
H 1474.47669281 28.47512002 56.52161653     6    122    0    0    0
H 1472.74856274 25.57975278 55.58433843     6    122    0    0    0
H 1471.89928891 26.93201025 58.30606144     6    122    0    0    0
H 1448.51833368 47.09660767 69.52279563     6     127    0    0    0
C 1450.41046574 46.68538182 70.32174184     1     126    128    129    130
H 1450.76290313 44.60466555 70.19355253     6     127    0    0    0
H 1451.58431479 47.66280834 68.95982171     6     127    0    0    0
C 1451.01652434 47.92396075 72.91406531     2     127    131    132    133
H 1450.06499406 49.82198487 72.71130978     6     130    0    0    0
H 1449.85367431 46.84065090 74.24532540     6     130    0    0    0
C 1453.86267473 47.84949533 73.65134887     2     130    134   135   136
H 1454.25714089 46.02566870 74.64135200     6     133    0    0    0
H 1454.88499506 47.93813425 71.81816499     6     133    0    0    0
C 1454.45067900 50.18929055 75.20369516     2     133   137   138   139
H 1452.68177700 50.66314202 76.06902557     6    136    0    0    0
H 1455.88535399 49.73591476 76.49165801     6    136    0    0    0
C 1455.09862542 52.64399523 73.57976993     2    136   140   141   142
H 1456.98575285 52.42121430 72.99782458     6    139    0    0    0
H 1454.00164238 52.70696181 71.82698624     6    139    0    0    0
C 1454.84240999 55.20280141 74.85133345     2    139   143   144   145
H 1452.78220281 55.96846027 74.75396640     6    142    0    0    0
H 1455.37368252 55.01438403 76.92528001     6    142    0    0    0
C 1456.47506736 57.20584529 73.58549980     2    142   146   147   148
H 1458.50091783 56.96494652 74.00737706     6    145    0    0    0
H 1456.29974458 57.05767678 71.55254543     6    145    0    0    0
C 1455.76130096 59.97116668 74.21749916     2    145   149   150   151
H 1453.98701815 60.39413123 73.29749576     6    148    0    0    0
H 1455.36855871 60.11380322 76.24532847     6    148    0    0    0
C 1457.60712676 61.94427176 73.55346753     2    148   152   153   154
H 1459.38133262 61.63067423 74.64381971     6    151    0    0    0
H 1458.11419340 61.68603886 71.53947192     6    151    0    0    0
C 1456.78767045 64.61923062 73.90323825     2    151   155   156   157
H 1457.90005106 65.63108895 72.60030027     6    154    0    0    0
H 1454.83264038 64.90521796 73.26074968     6    154    0    0    0
C 1457.05068400 65.80574566 76.56148075     2    154   158   159   160
H 1458.75810424 65.20815659 77.65122362     6    157    0    0    0
H 1457.30243884 67.69695327 75.90730921     6    157    0    0    0
C 1454.73170670 65.50442163 78.14145306     1    157   161   162   163
H 1454.79707343 66.84798958 79.76021757     6    160    0    0    0
H 1454.34876175 63.53468544 78.67904317     6    160    0    0    0
H 1452.99540481 66.14545442 77.13223728     6    160    0    0    0
H 1463.38845717 40.03589719 70.77796664     6     165    0    0    0
C 1463.39539411 39.16202490 72.57563138     1     164    166    167    168
H 1462.46494225 37.37924089 72.51397608     6     165    0    0    0
H 1465.41605721 38.75555431 73.14737510     6     165    0    0    0
C 1462.27235442 40.87289758 74.56403683     2     165    169    170    171
H 1463.04921851 42.70805246 74.29858224     6     168    0    0    0
H 1460.25094782 40.80737359 74.10782902     6     168    0    0    0
C 1462.93672530 40.08294549 77.20703185     2     168    172   173   174
H 1462.93925840 37.96439562 77.32693937     6     171    0    0    0
H 1464.89697887 40.52372682 77.54402480     6     171    0    0    0
C 1461.29940414 41.24558664 79.24773930     2     171   175   176   177
H 1460.83353612 43.17259448 78.66756830     6    174    0    0    0
H 1459.63724577 40.27884129 79.09921322     6    174    0    0    0
C 1462.33599797 40.99725577 81.95652182     2    174   178   179   180
H 1461.09280166 39.77078820 83.15199561     6    177    0    0    0
H 1464.15489756 40.22120738 82.04289432     6    177    0    0    0
C 1462.62096753 43.57782850 83.19865877     2    177   181   182   183
H 1463.96399203 44.62827505 81.92067244     6    180    0    0    0
H 1460.75935968 44.52937004 83.30652179     6    180    0    0    0
C 1463.64879662 43.37174885 85.97178899     2    180   184   185   186
H 1462.47367064 42.07244512 87.13753052     6    183    0    0    0
H 1465.39126628 42.35691798 86.16786315     6    183    0    0    0
C 1464.02327683 46.08022752 87.17692846     2    183   187   188   189
H 1465.68680202 47.07458487 86.56199888     6    186    0    0    0
H 1462.53668662 47.36107244 86.58580467     6    186    0    0    0
C 1464.44936247 46.03890414 90.01142915     2    186   190   191   192
H 1462.83952954 45.35668394 90.99539869     6    189    0    0    0
H 1465.62583265 44.50570517 90.60837461     6    189    0    0    0
C 1465.34036731 48.62865279 91.10767169     2    189   193   194   195
H 1467.09496933 49.13755958 90.02303840     6    192    0    0    0
H 1463.92936811 50.04211067 90.48203790     6    192    0    0    0
C 1465.53893248 48.78841375 93.98558883     2    192   196   197   198
H 1463.80341198 48.37470566 95.19343160     6    195    0    0    0
H 1466.74175290 47.37477090 94.89639964     6    195    0    0    0
C 1466.64994566 51.41643621 94.92466289     1    195   199   200   201
H 1466.62768768 51.21175577 96.92618454     6    198    0    0    0
H 1465.54031480 52.99556293 94.42980373     6    198    0    0    0
H 1468.67100913 51.67711332 94.35802630     6    198    0    0    0
H 1485.19710085 42.03880255 73.32271803     6     203    0    0    0
C 1483.96979154 42.00831611 74.88733720     1     202    204    205    206
H 1483.76176925 44.02912371 75.31714557     6     203    0    0    0
H 1482.18866238 41.15324094 74.52755005     6     203    0    0    0
C 1485.19010364 40.43949915 76.97982487     2     203    207    208    209
H 1484.23777071 40.89043711 78.74145871     6     206    0    0    0
H 1485.10742687 38.37245297 76.68360676     6     206    0    0    0
C 1488.10199781 40.98758077 77.28040976     2     206    210   211   212
H 1489.30406180 39.32510029 77.38846196     6     209    0    0    0
H 1488.94347986 41.48986372 75.43609904     6     209    0    0    0
C 1488.46492764 42.85202028 79.45478548     2     209   213   214   215
H 1486.89876563 44.11587471 79.45580305     6    212    0    0    0
H 1488.41357884 41.86618324 81.20450939     6    212    0    0    0
C 1490.97694875 44.11114333 79.55334639     2    212   216   217   218
H 1492.45539073 42.58081409 79.21458293     6    215    0    0    0
H 1491.09447938 45.24587213 77.76379999     6    215    0    0    0
C 1490.97163633 45.99681178 81.80404929     2    215   219   220   221
H 1489.48435933 47.39959726 81.75138556     6    218    0    0    0
H 1490.84893665 45.09940252 83.66231337     6    218    0    0    0
C 1493.59625285 47.25235554 81.74570586     2    218   222   223   224
H 1494.83667589 45.61659054 81.48697169     6    221    0    0    0
H 1493.90797468 48.43628242 79.99146464     6    221    0    0    0
C 1494.36864987 49.01485821 84.00903937     2    221   225   226   227
H 1492.75608196 50.33769331 84.33989225     6    224    0    0    0
H 1494.48367266 47.96121384 85.85181306     6    224    0    0    0
C 1496.89445682 50.33994200 83.50004493     2    224   228   229   230
H 1498.27484366 49.17491196 82.58713738     6    227    0    0    0
H 1496.51516118 51.71611373 82.02634496     6    227    0    0    0
C 1497.93117417 51.80057783 85.84793616     2    227   231   232   233
H 1496.84029646 53.51142579 86.23165352     6    230    0    0    0
H 1497.95915185 50.46122368 87.49458170     6    230    0    0    0
C 1500.76050792 52.57947987 85.58667685     2    230   234   235   236
H 1501.95817788 50.93598388 85.93071308     6    233    0    0    0
H 1501.09952782 53.44205221 83.74696498     6    233    0    0    0
C 1501.39709669 54.55837557 87.44485602     1    233   237   238   239
H 1503.45219137 54.95896386 87.28372770     6    236    0    0    0
H 1500.88146132 54.10743150 89.37687827     6    236    0    0    0
H 1500.42329326 56.30879492 86.81935545     6    236    0    0    0
H 1493.75098786 40.07713849 45.95835371     6     241    0    0    0
C 1493.39452386 38.92168721 47.54250492     1     240    242    243    244
H 1494.80540886 37.29364599 47.45518432     6     241    0    0    0
H 1493.68766831 39.88951663 49.31370034     6     241    0    0    0
C 1490.69856727 37.75931485 47.39158978     2     241    245    246    247
H 1490.36317132 37.18359280 45.39721545     6     244    0    0    0
H 1490.94690002 35.86697621 48.23642893     6     244    0    0    0
C 1488.50862666 39.42886467 48.42429026     2     244    248   249   250
H 1486.84830108 38.32313340 48.78782011     6     247    0    0    0
H 1489.05245350 40.29382267 50.25770641     6     247    0    0    0
C 1487.96657319 41.66286585 46.63365845     2     247   251   252   253
H 1487.01754312 43.03957190 47.91450808     6    250    0    0    0
H 1489.85036551 42.43662235 46.15952535     6    250    0    0    0
C 1486.24781005 41.01447650 44.18735964     2    250   254   255   256
H 1486.53696099 39.30420360 43.19053847     6    253    0    0    0
H 1484.49241453 40.50208448 45.06614811     6    253    0    0    0
C 1485.74908987 43.33299737 42.49363934     2    253   257   258   259
H 1484.04073175 42.87958159 41.53696739     6    256    0    0    0
H 1485.20730414 44.99511091 43.47430618     6    256    0    0    0
C 1487.74252027 43.77387542 40.51648572     2    256   260   261   262
H 1489.89917296 43.70006873 40.99786326     6    259    0    0    0
H 1487.58508695 42.33442311 39.13141631     6    259    0    0    0
C 1487.71586460 46.31365193 39.09248236     2    259   263   264   265
H 1486.02515184 46.51212184 38.00796819     6    262    0    0    0
H 1487.26387792 47.79194372 40.39782861     6    262    0    0    0
C 1489.96156272 47.09741038 37.49579728     2    262   266   267   268
H 1489.96315330 49.09787753 37.41044473     6    265    0    0    0
H 1491.74372044 46.62021511 38.45438880     6    265    0    0    0
C 1489.92166427 45.78107550 34.80524706     2    265   269   270   271
H 1489.78486411 43.73147709 35.17952410     6    268    0    0    0
H 1488.26694501 46.34570142 33.82656527     6    268    0    0    0
C 1492.27532347 46.54979689 33.25717520     2    268   272   273   274
H 1492.22129231 48.54261142 33.35562335     6    271    0    0    0
H 1494.04548657 46.34811361 34.22764513     6    271    0    0    0
C 1492.34402036 45.90360531 30.49446861     1    271   275   276   277
H 1492.96771995 43.81778100 30.36012102     6    274    0    0    0
H 1493.71892983 47.16941146 29.68729460     6    274    0    0    0
H 1490.81458899 46.36581598 29.35648368     6    274    0    0    0
H 1480.30862749 35.59733193 67.32115009     6     279    0    0    0
C 1480.16496634 37.35815206 66.32433382     1     278    280    281    282
H 1480.38054780 37.09749507 64.37153333     6     279    0    0    0
H 1478.16958084 37.89863929 66.49550688     6     279    0    0    0
C 1482.33245626 39.14874154 67.41233113     2     279    283    284    285
H 1481.94861797 41.09503586 66.82793585     6     282    0    0    0
H 1481.99079002 39.37270434 69.45815127     6     282    0    0    0
C 1484.98094801 38.45010746 66.73643457     2     282    286   287   288
H 1485.51793290 37.06466361 68.25937000     6     285    0    0    0
H 1485.40896344 37.55398617 64.99847965     6     285    0    0    0
C 1486.86025420 40.47577162 67.02120881     2     285   289   290   291
H 1486.25623959 42.35765700 66.23293890     6    288    0    0    0
H 1486.92463519 41.01768821 69.07292789     6    288    0    0    0
C 1489.62613658 39.85538177 66.43703309     2    288   292   293   294
H 1489.83990152 38.39742254 67.84148656     6    291    0    0    0
H 1489.76266359 38.92275463 64.65835286     6    291    0    0    0
C 1491.56361669 41.86765991 66.88952503     2    291   295   296   297
H 1491.19096303 43.25695734 65.51115567     6    294    0    0    0
H 1491.40862425 42.83839313 68.62903226     6    294    0    0    0
C 1494.39234341 40.88611126 66.77053017     2    294   298   299   300

   17   -1830.5179615082      8.13E-09 Convergence criterion met
 Total energy in the final basis set = -1828.28433245
 Total job time:  16.86s(wall), 29.61s(cpu)
        *  Thank you very much for using Q-Chem.  Have a nice day.  *

User input: 2 of 2

                  Welcome to Q-Chem
     A Quantum Leap Into The Future Of Chemistry

 Q-Chem 5.4 (devel), Q-Chem, Inc., Pleasanton, CA (2021)

 E. Epifanovsky,  A. T. B. Gilbert,  Xintian Feng,  Joonho Lee,  Yuezhi Mao,
 N. Mardirossian,  P. Pokhilko,  A. White,  M. Wormit,  M. P. Coons,
 A. L. Dempwolff,  Zhengting Gan,  D. Hait,  P. R. Horn,  L. D. Jacobson,
 I. Kaliman,  J. Kussmann,  A. W. Lange,  Ka Un Lao,  D. S. Levine,  Jie Liu,
 S. C. McKenzie,  A. F. Morrison,  K. Nanda,  F. Plasser,  D. R. Rehn,
 M. L. Vidal,  Zhi-Qiang You,  Ying Zhu,  B. Alam,  B. Albrecht,
 A. Aldossary,  E. Alguire,  J. H. Andersen,  D. Barton,  K. Begam,  A. Behn,
 Y. A. Bernard,  E. J. Berquist,  H. Burton,  A. Carreras,  K. Carter-Fenk,
 R. Chakraborty,  A. D. Chien,  K. D. Closser,  V. Cofer-Shabica,
 S. Dasgupta,  Jia Deng,  M. de Wergifosse,  M. Diedenhofen,  Hainam Do,
 S. Ehlert,  Po-Tung Fang,  S. Fatehi,  Qingguo Feng,  T. Friedhoff,
 J. Gayvert,  Qinghui Ge,  G. Gidofalvi,  M. Goldey,  J. Gomes,
 C. Gonzalez-Espinoza,  S. Gulania,  A. Gunina,  M. W. D. Hanson-Heine,
 P. H. P. Harbach,  A. W. Hauser,  M. F. Herbst,  M. Hernandez Vera,
 M. Hodecker,  Z. C. Holden,  S. Houck,  Xunkun Huang,  Kerwin Hui,
 B. C. Huynh,  M. Ivanov,  Hyunjun Ji,  Hanjie Jiang,  B. Kaduk,  S. Kaehler,
 K. Khistyaev,  Jaehoon Kim,  P. Klunzinger,  Z. Koczor-Benda,
 Joong Hoon Koh,  D. Kosenkov,  L. Koulias,  T. Kowalczyk,  C. M. Krauter,
 K. Kue,  A. Kunitsa,  T. Kus,  A. Landau,  K. V. Lawler,  D. Lefrancois,
 S. Lehtola,  Rain Li,  Yi-Pei Li,  Jiashu Liang,  M. Liebenthal,
 Hung-Hsuan Lin,  You-Sheng Lin,  Fenglai Liu,  Kuan-Yu Liu,
 M. Loipersberger,  A. Luenser,  A. Manjanath,  P. Manohar,  E. Mansoor,
 S. F. Manzer,  Shan-Ping Mao,  A. V. Marenich,  T. Markovich,  S. Mason,
 S. A. Maurer,  P. F. McLaughlin,  M. F. S. J. Menger,  J.-M. Mewes,
 S. A. Mewes,  P. Morgante,  J. W. Mullinax,  K. J. Oosterbaan,  G. Paran,
 Alexander C. Paul,  Suranjan K. Paul,  F. Pavosevic,  Zheng Pei,  S. Prager,
 E. I. Proynov,  E. Ramos,  B. Rana,  A. E. Rask,  A. Rettig,  R. M. Richard,
 F. Rob,  E. Rossomme,  T. Scheele,  M. Scheurer,  M. Schneider,
 N. Sergueev,  S. M. Sharada,  W. Skomorowski,  D. W. Small,  C. J. Stein,
 Yu-Chuan Su,  E. J. Sundstrom,  Zhen Tao,  J. Thirman,  T. Tsuchimochi,
 N. M. Tubman,  S. P. Veccham,  O. Vydrov,  J. Wenzel,  J. Witte,  A. Yamada,
 Kun Yao,  S. Yeganeh,  S. R. Yost,  A. Zech,  Igor Ying Zhang,  Xing Zhang,
 Yu Zhang,  D. Zuev,  A. Aspuru-Guzik,  A. T. Bell,  N. A. Besley,
 K. B. Bravaya,  B. R. Brooks,  D. Casanova,  Jeng-Da Chai,  S. Coriani,
 C. J. Cramer,  A. E. DePrince, III,  R. A. DiStasio Jr.,  A. Dreuw,
 B. D. Dunietz,  T. R. Furlani,  W. A. Goddard III,  S. Grimme,
 S. Hammes-Schiffer,  T. Head-Gordon,  W. J. Hehre,  Chao-Ping Hsu,
 T.-C. Jagau,  Yousung Jung,  A. Klamt,  Jing Kong,  D. S. Lambrecht,
 WanZhen Liang,  N. J. Mayhall,  C. W. McCurdy,  J. B. Neaton,
 C. Ochsenfeld,  J. A. Parkhill,  R. Peverati,  V. A. Rassolov,  Yihan Shao,
 L. V. Slipchenko,  T. Stauch,  R. P. Steele,  J. E. Subotnik,
 A. J. W. Thom,  A. Tkatchenko,  D. G. Truhlar,  T. Van Voorhis,
 T. A. Wesolowski,  K. B. Whaley,  H. L. Woodcock III,  P. M. Zimmerman,
 S. Faraji,  P. M. W. Gill,  M. Head-Gordon,  J. M. Herbert,  A. I. Krylov

 Additional authors for Version 5.4.1:
 S. Kotaru,  Shaozhi Li,  Xiangyuan Li,  F. Matz,  A. Molle,  Haisheng Ren,
 Yingli Su,  Hung-Yi Tsai,  C. Utku,  Fang Wang

 Contributors to earlier versions of Q-Chem not listed above:
 R. D. Adamson,  B. Austin,  R. Baer,  J. Baker,  G. J. O. Beran,
 K. Brandhorst,  S. T. Brown,  E. F. C. Byrd,  A. K. Chakraborty,
 G. K. L. Chan,  Chun-Min Chang,  Yunqing Chen,  C.-L. Cheng,
 Siu Hung Chien,  D. M. Chipman,  D. L. Crittenden,  H. Dachsel,
 R. J. Doerksen,  A. D. Dutoi,  R. G. Edgar,  J. Fosso-Tande,
 L. Fusti-Molnar,  D. Ghosh,  A. Ghysels,  A. Golubeva-Zadorozhnaya,
 J. Gonthier,  M. S. Gordon,  S. R. Gwaltney,  G. Hawkins,  J. E. Herr,
 A. Heyden,  S. Hirata,  E. G. Hohenstein,  G. Kedziora,  F. J. Keil,
 C. Kelley,  Jihan Kim,  R. A. King,  R. Z. Khaliullin,  P. P. Korambath,
 W. Kurlancheek,  A. Laurent,  A. M. Lee,  M. S. Lee,  S. V. Levchenko,
 Ching Yeh Lin,  D. Liotard,  E. Livshits,  R. C. Lochan,  I. Lotan,
 L. A. Martinez-Martinez,  P. E. Maslen,  N. Nair,  D. P. O'Neill,
 D. Neuhauser,  E. Neuscamman,  C. M. Oana,  R. Olivares-Amaya,  R. Olson,
 T. M. Perrine,  B. Peters,  P. A. Pieniazek,  A. Prociuk,  Y. M. Rhee,
 J. Ritchie,  M. A. Rohrdanz,  E. Rosta,  N. J. Russ,  H. F. Schaefer III,
 M. W. Schmidt,  N. E. Schultz,  S. Sharma,  N. Shenvi,  C. D. Sherrill,
 A. C. Simmonett,  A. Sodt,  T. Stein,  D. Stuck,  K. S. Thanthiriwatte,
 V. Vanovschi,  L. Vogt,  Tao Wang,  A. Warshel,  M. A. Watson,
 C. F. Williams,  Q. Wu,  X. Xu,  Jun Yang,  W. Zhang,  Yan Zhao

 Please cite Q-Chem as follows:
 Y. Shao et al., Mol. Phys. 113, 184-215 (2015)
 DOI: 10.1080/00268976.2014.952696

 Q-Chem 5.4.1 for Intel X86 EM64T Linux

 Parts of Q-Chem use Armadillo 9.900.5 (Nocturnal Misbehaviour).
 http://arma.sourceforge.net/

 Q-Chem begins on Wed Jun  1 23:30:40 2022

 Host: p09r14n13.grace.hpc.yale.internal
0

     Scratch files written to /home/tl686/scratch60/qchem_dev/scratch/qchem244581//
 Processing $rem in /home/tl686/qchem_dev/qchem/config/preferences:
 Processing $rem in /home/tl686/.qchemrc:
Applying user defined connections for MM calculations
The previous job contains 0 fragments, simply inherited here

 Checking the input file for inconsistencies... 	...done.

--------------------------------------------------------------
User input:
--------------------------------------------------------------

$molecule
READ
$end

$qm_atoms
1:11
$end

$force_field_params
NumAtomTypes 3
AtomType -1   0.0238     3.11   0.2868
AtomType -2   0.07124    3.30   0.6597
AtomType -3  -0.0760     3.09   0.1434
$end

$rem
     JOBTYPE  freq
     METHOD   bp86
     BASIS    def2-msvp
     MAX_SCF_CYCLES   800
     INPUT_BOHR TRUE
     SYM_IGNORE TRUE
     SCF_GUESS     read
     user_connect            true
     qm_mm_interface         ONIOM
     force_field             oplsaa
$end

--------------------------------------------------------------

    2   -1830.5179615085      7.05E-09 Convergence criterion met
 Total energy in the final basis set = -1828.28433245

                    Orbital Energies (a.u.)
 --------------------------------------------------------------

 Alpha MOs
 -- Occupied --
******** -29.6269 -25.5874 -25.5734 -25.5703 -18.8850 -18.8829 -18.8824
-18.8763 -18.8668 -10.0488 -10.0481 -10.0440 -10.0362 -10.0337  -3.3119
 -2.1493  -2.1229  -2.1138  -1.0719  -1.0676  -1.0642  -1.0587  -1.0449
 -0.5696  -0.5236  -0.5181  -0.5131  -0.5099  -0.4576  -0.4466  -0.4460
 -0.4368  -0.4361  -0.4331  -0.4272  -0.4232  -0.4181  -0.4154  -0.4098
 -0.4076  -0.3991  -0.3910  -0.3788  -0.2725  -0.2655  -0.2291  -0.2118

          Ground-State Mulliken Net Atomic Charges

     Atom                 Charge (a.u.)
  ----------------------------------------
      1 Fe                   -0.510052
      2 C                     0.182238
      3 C                     0.183188
      4 C                     0.201929
      5 C                     0.202888
      6 C                     0.234542
      7 O                    -0.090626
      8 O                    -0.101226
      9 O                    -0.119286
     10 O                    -0.096622
     11 O                    -0.086973
  ----------------------------------------
  Sum of atomic charges =     0.000000

                    Cartesian Multipole Moments
 -----------------------------------------------------------------
    Charge (ESU x 10^10)
                -0.0000
    Dipole Moment (Debye)
         X       0.2990433324      Y      -0.0306596715      Z      -0.0194069186
       Tot       0.3012367153
    Quadrupole Moments (Debye-Ang)
        XX     397.9317     XY     -12.1353     YY     -71.5424
        XZ      -6.4397     YZ      -1.2285     ZZ     -70.0635

 Frequency:      -119.19                -115.69                -104.74
 Force Cnst:      0.1423                 0.1345                 0.1137
 Red. Mass:      17.0022                17.0531                17.5835
 IR Intens:        0.000                  0.000                  0.000
 Frequency:       -90.75                 -80.09                 -72.64
 Force Cnst:      0.0780                 0.0605                 0.0488
 Red. Mass:      16.0720                16.0114                15.7098
 IR Intens:        0.000                  0.000                  0.000
 Frequency:        24.47                 253.11                 257.67
 Force Cnst:      0.0056                 0.4805                 0.5009
 Red. Mass:      15.9581                12.7308                12.8054
 IR Intens:        0.000                  0.000                  0.000
 Frequency:       285.47                 341.75                 388.94
 Force Cnst:      0.6129                 0.8747                 1.1962
 Red. Mass:      12.7645                12.7118                13.4210
 IR Intens:        0.000                  0.000                  0.000
 Frequency:       398.24                 418.43                 455.96
 Force Cnst:      1.2971                 1.4848                 1.5930
 Red. Mass:      13.8813                14.3935                13.0045
 IR Intens:        0.000                  0.000                  0.000
 Frequency:       465.13                 488.65                 497.73
 Force Cnst:      1.7706                 1.7627                 1.8970
 Red. Mass:      13.8905                12.5294                12.9966
 IR Intens:        0.000                  0.000                  0.000
 Frequency:       522.19                 608.98                 629.29
 Force Cnst:      2.0358                 4.4280                 4.2543
 Red. Mass:      12.6714                20.2653                18.2336
 IR Intens:        0.000                  0.000                  0.000
 Frequency:       653.29                2081.81                2135.12
 Force Cnst:      4.7155                34.0246                35.8384
 Red. Mass:      18.7529                13.3248                13.3430
 IR Intens:        0.000                  0.000                  0.000
 Frequency:      2159.71                2189.40                2245.42
 Force Cnst:     36.7662                37.7330                39.5398
 Red. Mass:      13.3786                13.3604                13.3103
 IR Intens:        0.000                  0.000                  0.000

 STANDARD THERMODYNAMIC QUANTITIES AT   298.15 K  AND     1.00 ATM

   This Molecule has  6 Imaginary Frequencies
   Zero point vibrational energy:       25.019 kcal/mol

   Atom    1 Element Fe Has Mass   55.93490
   Atom    2 Element C  Has Mass   12.00000
   Atom    3 Element C  Has Mass   12.00000
   Atom    4 Element C  Has Mass   12.00000
   Atom    5 Element C  Has Mass   12.00000
   Atom    6 Element C  Has Mass   12.00000
   Atom    7 Element O  Has Mass   15.99491
   Atom    8 Element O  Has Mass   15.99491
   Atom    9 Element O  Has Mass   15.99491
   Atom   10 Element O  Has Mass   15.99491
   Atom   11 Element O  Has Mass   15.99491
   Molecular Mass:   195.909450 amu
   Principal axes and moments of inertia in amu*Bohr^2:
                             1           2           3
    Eigenvalues --     1922.69194  2040.90018  2399.14500
          X              -0.30419    -0.48949     0.81723
          Y               0.25892     0.78311     0.56542
          Z               0.91675    -0.38359     0.11147
   Rotational Symmetry Number is   1
   The Molecule is an Asymmetric Top
   Translational Enthalpy:        0.889 kcal/mol
   Rotational Enthalpy:           0.889 kcal/mol
   Vibrational Enthalpy:         28.276 kcal/mol
   gas constant (RT):             0.592 kcal/mol
   Translational Entropy:        41.722  cal/mol.K
   Rotational Entropy:           30.621  cal/mol.K
   Vibrational Entropy:          19.886  cal/mol.K

   Total Enthalpy:               30.646 kcal/mol
   Total Entropy:                92.230  cal/mol.K

 Total job time:  127.05s(wall), 250.49s(cpu)
        *  Thank you very much for using Q-Chem.  Have a nice day.  *
