 Q-Chem 5.4 (devel), Q-Chem, Inc., Pleasanton, CA (2021)
 Q-Chem 5.4.1 for Intel X86 EM64T Linux

User input:
--------------------------------------------------------------
$molecule
0   1
 Fe 930.03576202 -54.43886110 70.62312966    -1  0   0   0   0
C 928.50974816 -54.08223319 73.63905420    -2  0   0   0   0
C 931.33818184 -53.60875117 67.61595234    -2  0   0   0   0
C 933.10554010 -53.94411069 72.15474763    -2  0   0   0   0
C 929.69966031 -57.76402800 69.98662477    -2  0   0   0   0
C 927.42485349 -52.53688145 69.60848319    -2  0   0   0   0
O 927.39097203 -54.42518621 75.61344150    -3  0   0   0   0
O 932.07984435 -53.04321532 65.60292658    -3  0   0   0   0
O 935.10288492 -53.53013847 72.93182136    -3  0   0   0   0
O 929.38433182 -59.80888657 69.28772512    -3  0   0   0   0
O 925.72313871 -51.17793242 68.96576276    -3  0   0   0   0
H 943.00262270 -68.53958055 88.18784748      6     13    0    0    0
C 942.39014267 -69.61308421 89.77045960     1     12    14    15    16
H 944.00474331 -69.86774749 91.00423630     6     13    0    0    0
H 940.84976282 -68.63778950 90.62466519     6     13    0    0    0
C 941.77140885 -72.06020655 88.58178263     2     13    17    18    19
H 943.28496518 -72.88341849 87.55180290     6     16    0    0    0
H 941.23595052 -73.46273853 89.96828447     6     16    0    0    0
C 939.71630842 -71.68468532 86.53409573     2     16    20   21   22
H 938.05338657 -70.79502342 87.46050625     6     19    0    0    0
H 940.22721840 -70.13644165 85.28128221     6     19    0    0    0
C 939.12563491 -74.24979299 85.16542899     2     19   23   24   25
H 940.84886879 -74.71920265 84.06438193     6    22    0    0    0
H 938.65642119 -75.74225063 86.49206395     6    22    0    0    0
C 937.11793826 -73.95436647 83.17650449     2    22   26   27   28
H 935.32090544 -73.75744020 84.22840109     6    25    0    0    0
H 937.15511205 -72.08495125 82.19564563     6    25    0    0    0
C 936.93444573 -76.14446180 81.37882430     2    25   29   30   31
H 938.72964562 -76.41781084 80.27342931     6    28    0    0    0
H 936.65250996 -77.84210452 82.48937798     6    28    0    0    0
C 934.88190807 -75.59533939 79.55151730     2    28   32   33   34
H 933.07833364 -75.70538812 80.44633454     6    31    0    0    0
H 934.96327459 -73.66693743 78.89942251     6    31    0    0    0
C 934.76554388 -77.55370873 77.58187873     2    31   35   36   37
H 936.34682664 -77.42871680 76.31883880     6    34    0    0    0
H 934.83795753 -79.30858544 78.73121727     6    34    0    0    0
C 932.33857341 -77.73028422 76.04307809     2    34   38   39   40
H 930.96324965 -77.82586999 77.47090501     6    37    0    0    0
H 932.11182960 -75.93389449 75.09031531     6    37    0    0    0
C 932.78112176 -79.76538603 74.05592965     2    37   41   42   43
H 934.60251819 -79.37564495 73.21408922     6    40    0    0    0
H 932.95012733 -81.71038358 74.78694280     6    40    0    0    0
C 931.11620652 -79.84524215 71.79705894     2    40   44   45   46
H 929.05961618 -79.80706271 72.31444185     6    43    0    0    0
H 931.36272081 -78.09897753 70.77088535     6    43    0    0    0
C 931.47012273 -82.12881070 69.98722954     1    43   47   48   49
H 932.99952570 -81.79434373 68.59416981     6    46    0    0    0
H 929.78448231 -82.49091334 69.01414264     6    46    0    0    0
H 932.02461041 -83.77892343 71.01614929     6    46    0    0    0
H 928.06985908 -68.38219465 69.04386267     6     51    0    0    0
C 929.56796043 -68.19080737 70.42950515     1     50    52    53    54
H 931.15453655 -67.10343760 69.76356054     6     51    0    0    0
H 928.66006587 -67.20327150 72.10401582     6     51    0    0    0
C 930.37500415 -70.73327583 71.47023912     2     51    55    56    57
H 932.21959848 -70.66397635 72.46997796     6     54    0    0    0
H 929.04105152 -71.27420250 73.03088437     6     54    0    0    0
C 930.30279065 -72.72859142 69.58811637     2     54    58   59   60
H 930.98589086 -71.79788012 67.91579048     6     57    0    0    0
H 931.52496600 -74.18915549 70.12739033     6     57    0    0    0
C 927.64183654 -73.81575276 69.21685556     2     57   61   62   63
H 927.30241076 -74.89387751 70.92489949     6    60    0    0    0
H 926.25825585 -72.40321120 68.75659823     6    60    0    0    0
C 927.45791002 -75.83163397 67.09437092     2    60   64   65   66
H 928.11536456 -75.27390191 65.27021288     6    63    0    0    0
H 928.75004723 -77.46132387 67.45380586     6    63    0    0    0
C 924.83483693 -77.05105299 66.80701984     2    63   67   68   69
H 924.99706481 -78.64875098 65.52022247     6    66    0    0    0
H 924.28822958 -77.76677626 68.73658073     6    66    0    0    0
C 922.98156687 -75.18992612 65.98375063     2    66   70   71   72
H 922.83515194 -73.65206059 67.29005786     6    69    0    0    0
H 923.84263474 -74.55678278 64.20010801     6    69    0    0    0
C 920.31828313 -76.43141349 66.01995860     2    69   73   74   75
H 920.39706161 -77.82746450 64.48440646     6    72    0    0    0
H 919.95638856 -77.40536620 67.79596884     6    72    0    0    0
C 918.01515305 -74.54606690 65.39033386     2    72   76   77   78
H 918.19673350 -73.00392911 66.66771515     6    75    0    0    0
H 918.39510265 -73.65336849 63.56114141     6    75    0    0    0
C 915.55646869 -75.94126964 65.81727394     2    75   79   80   81
H 915.77183395 -77.79337511 65.18499435     6    78    0    0    0
H 915.34978166 -76.09229816 67.92821576     6    78    0    0    0
C 913.24352165 -74.93530372 64.28824837     2    78   82   83   84
H 913.80618774 -74.22353453 62.41012854     6    81    0    0    0
H 911.91291442 -76.49001318 63.90933215     6    81    0    0    0
C 911.95548155 -72.67359599 65.69412965     1    81   85   86   87
H 910.85191968 -73.31286146 67.32525097     6    84    0    0    0
H 910.69417971 -71.59650509 64.49931034     6    84    0    0    0
H 913.26106142 -71.29332679 66.36053221     6    84    0    0    0
H 953.90955911 -80.04368954 80.69733000     6     89    0    0    0
C 952.49074980 -81.36904107 80.06759911     1     88    90    91    92
H 951.49574565 -81.61535095 81.88886648     6     89    0    0    0
H 951.28161655 -80.56804523 78.67875536     6     89    0    0    0
C 953.66553438 -83.99857105 79.14256975     2     89    93    94    95
H 955.01952600 -83.58414946 77.69772709     6     92    0    0    0
H 954.72155725 -84.87873735 80.80794798     6     92    0    0    0
C 951.50791687 -85.87639890 78.30820162     2     92    96   97   98
H 950.71107885 -85.14459403 76.59073910     6     95    0    0    0
H 952.38973593 -87.55591758 77.62062748     6     95    0    0    0
C 949.73609875 -86.32520802 80.38255502     2     95   99   100   101
H 950.45401950 -86.58388239 82.26768252     6    98    0    0    0
H 948.55721721 -84.63878412 80.54608821     6    98    0    0    0
C 947.98403901 -88.51893413 79.85325941     2    98   102   103   104
H 947.45065949 -88.81850310 77.87310849     6    101    0    0    0
H 949.24739218 -90.22293803 80.24753558     6    101    0    0    0
C 945.61417510 -88.49417453 81.45876738     2    101   105   106   107
H 946.08733040 -88.69719418 83.32093025     6    104    0    0    0
H 944.92520313 -86.56372632 81.38695289     6    104    0    0    0
C 943.53548794 -90.34976697 80.39611369     2    104   108   109   110
H 942.58655183 -89.71136933 78.52785324     6    107    0    0    0
H 944.66352768 -91.87591272 79.79983069     6    107    0    0    0
C 941.40078194 -90.90319872 82.31574416     2    107   111   112   113
H 942.10449175 -91.09744388 84.19790100     6    110    0    0    0
H 940.20290749 -89.37922070 82.46724797     6    110    0    0    0
C 939.86805264 -93.32834066 81.75076647     2    110   114   115   116
H 939.09656643 -92.78567398 79.96313438     6    113    0    0    0
H 940.91379529 -95.00411488 81.45191143     6    113    0    0    0
C 937.66000040 -93.60152260 83.67905054     2    113   117   118   119
H 938.39956513 -94.13978557 85.55393823     6    116    0    0    0
H 937.03674543 -91.77927550 84.00087777     6    116    0    0    0
C 935.49349402 -95.52694162 82.86276072     2    116   120   121   122
H 934.58531674 -95.66968452 84.76357030     6    119    0    0    0
H 934.48193348 -94.12689126 81.72196303     6    119    0    0    0
C 935.97338719 -98.07035928 81.49366559     1    119   123   124   125
H 934.08346143 -98.93850878 80.94739515     6    122    0    0    0
H 936.67784429 -99.62842801 82.60961114     6    122    0    0    0
H 937.29526066 -97.77349600 79.93563011     6    122    0    0    0
H 951.01681599 -69.83220100 69.93286073     6     127    0    0    0
C 951.99831339 -68.15482639 70.35638864     1     126    128    129    130
H 952.78089585 -68.24903470 72.20966514     6     127    0    0    0
H 953.64590034 -68.28964541 68.98645881     6     127    0    0    0
C 950.02008842 -66.03121090 69.87189431     2     127    131    132    133
H 949.29561924 -66.47857878 68.02716536     6     130    0    0    0
H 948.33165274 -66.14800397 71.10405059     6     130    0    0    0
C 951.20489129 -63.29866219 70.25402709     2     130    134   135   136
H 951.23779272 -62.71856672 72.17547428     6     133    0    0    0
H 953.20818467 -63.17922242 70.01391146     6     133    0    0    0
C 949.50888519 -61.25424068 69.01340448     2     133   137   138   139
H 948.74371113 -61.56184800 67.21534725     6    136    0    0    0
H 947.82429282 -60.89629317 70.12358560     6    136    0    0    0
C 950.79724208 -58.75369526 68.89471314     2    136   140   141   142
H 951.36563260 -58.10908366 70.72662484     6    139    0    0    0
H 952.56163357 -59.03300111 67.74790060     6    139    0    0    0
C 949.09973215 -56.60360403 67.72705068     2    139   143   144   145
H 949.02838395 -56.94982094 65.67071682     6    142    0    0    0
H 947.21571262 -56.77969979 68.49809078     6    142    0    0    0
C 950.29693233 -54.00647736 68.11180320     2    142   146   147   148
H 950.59675635 -53.72533817 70.02649760     6    145    0    0    0
H 952.24997079 -53.90687759 67.42887062     6    145    0    0    0
C 948.66611176 -52.02766823 66.81381068     2    145   149   150   151
H 948.85795641 -52.14866466 64.72658428     6    148    0    0    0
H 946.68255815 -52.57649565 67.23845869     6    148    0    0    0
C 949.32405700 -49.32426070 67.78661426     2    148   152   153   154
H 948.86308233 -49.07022359 69.80492515     6    151    0    0    0
H 951.34900241 -49.03136598 67.80123960     6    151    0    0    0
C 948.01239721 -47.15231290 66.26799523     2    151   155   156   157
H 949.00469084 -47.05858451 64.53052148     6    154    0    0    0
H 946.08525977 -47.77764716 65.71182131     6    154    0    0    0
C 947.74228751 -44.79391797 67.86804733     2    154   158   159   160
H 946.80920854 -43.42579254 66.79115823     6    157    0    0    0
H 946.43872528 -44.74465881 69.46250248     6    157    0    0    0
C 950.27248182 -43.71428347 68.62639840     1    157   161   162   163
H 950.12931205 -41.75013008 69.37535920     6    160    0    0    0
H 951.34429089 -43.54439177 66.99224981     6    160    0    0    0
H 951.39204854 -44.74650785 70.11673215     6    160    0    0    0
H 951.82803114 -77.85288766 53.00865673     6     165    0    0    0
C 953.83019842 -77.27293838 53.08030791     1     164    166    167    168
H 955.10572366 -78.66277510 54.00639601     6     165    0    0    0
H 954.53957900 -77.03509068 51.12244902     6     165    0    0    0
C 953.63612157 -74.64623439 54.50188562     2     165    169    170    171
H 951.81872083 -73.75744635 53.94172887     6     168    0    0    0
H 953.70826466 -74.88443871 56.48253907     6     168    0    0    0
C 955.82946516 -72.98662048 53.65981694     2     168    172   173   174
H 957.78161550 -73.64880269 53.93694459     6     171    0    0    0
H 955.50115262 -72.87741561 51.56983448     6     171    0    0    0
C 955.70818785 -70.29092643 54.77584056     2     171   175   176   177
H 953.80907776 -69.44883408 54.74163876     6    174    0    0    0
H 956.42483817 -70.42973275 56.67669562     6    174    0    0    0
C 957.32595186 -68.51887041 53.27677113     2    174   178   179   180
H 959.39399448 -69.01329051 53.22110658     6    177    0    0    0
H 956.57476059 -68.45802617 51.33581526     6    177    0    0    0
C 956.95718874 -65.89594369 54.49670589     2    177   181   182   183
H 954.81768397 -65.71923704 54.54575528     6    180    0    0    0
H 957.88728896 -65.90155944 56.32586597     6    180    0    0    0
C 958.25789249 -63.78761081 53.12393512     2    180   184   185   186
H 960.30138751 -64.00956765 53.20889575     6    183    0    0    0
H 958.14394873 -63.78167281 51.08811349     6    183    0    0    0
C 957.65439426 -61.12058904 54.19584448     2    183   187   188   189
H 955.82437670 -60.22126085 53.58312682     6    186    0    0    0
H 957.30706785 -61.35541162 56.09212528     6    186    0    0    0
C 959.71537575 -59.09909708 54.00196622     2    186   190   191   192
H 960.74250427 -59.08482450 55.75421025     6    189    0    0    0
H 961.21194344 -59.32727084 52.70478400     6    189    0    0    0
C 958.74970169 -56.35654527 53.96473151     2    189   193   194   195
H 957.78704255 -55.86787619 52.26523287     6    192    0    0    0
H 957.50229322 -55.94822645 55.53396265     6    192    0    0    0
C 960.90307416 -54.41604955 54.02267029     2    192   196   197   198
H 961.81756142 -54.33306142 55.83743932     6    195    0    0    0
H 962.58757028 -54.84152691 52.90891319     6    195    0    0    0
C 959.83312832 -51.87247781 53.09838946     1    195   199   200   201
H 958.06375145 -51.53323698 53.98635108     6    198    0    0    0
H 959.32098592 -51.80188938 51.09974537     6    198    0    0    0
H 960.97463235 -50.24255298 53.49496567     6    198    0    0    0
H 939.51743276 -76.61524515 53.91439562     6     203    0    0    0
C 941.02363418 -75.35831429 53.73823788     1     202    204    205    206
H 940.42083362 -73.45975530 53.00986149     6     203    0    0    0
H 942.01163628 -75.03253879 55.49353859     6     203    0    0    0
C 943.08164753 -76.48929258 52.02154987     2     203    207    208    209
H 944.77882607 -75.20312038 52.14727993     6     206    0    0    0
H 943.82637944 -78.19072667 52.96222725     6     206    0    0    0
C 942.16268740 -77.15240066 49.25472686     2     206    210   211   212
H 943.80735853 -78.04872590 48.15189901     6     209    0    0    0
H 940.55610936 -78.46681765 49.31518907     6     209    0    0    0
C 941.29627771 -74.88232033 47.87913944     2     209   213   214   215
H 940.35765003 -73.59084681 49.16630052     6    212    0    0    0
H 942.83991110 -73.66101456 47.12414552     6    212    0    0    0
C 939.56796243 -75.50874718 45.66701506     2    212   216   217   218
H 940.48546157 -76.70110750 44.33158837     6    215    0    0    0
H 937.75323959 -76.40234323 46.19784809     6    215    0    0    0
C 938.63790011 -73.19227778 44.06516646     2    215   219   220   221
H 937.73124784 -71.81811980 45.34485472     6    218    0    0    0
H 940.37967076 -72.48624409 43.18119704     6    218    0    0    0
C 936.40153824 -73.88986913 42.15439490     2    218   222   223   224
H 936.90436684 -75.68599489 41.35270907     6    221    0    0    0
H 934.63908498 -74.30276167 42.92548090     6    221    0    0    0
C 935.98375451 -71.85543419 40.21739607     2    221   225   226   227
H 935.81541681 -70.14453904 41.37501015     6    224    0    0    0
H 937.64951453 -71.65264266 38.90950887     6    224    0    0    0
C 933.61712977 -72.25639612 38.42167661     2    224   228   229   230
H 933.65036459 -73.79335953 37.20942461     6    227    0    0    0
H 931.99370043 -72.18195863 39.58905980     6    227    0    0    0
C 933.31001652 -70.15318390 36.64329510     2    227   231   232   233
H 933.51840530 -68.29601137 37.67016639     6    230    0    0    0
H 934.91489085 -70.22302411 35.25146130     6    230    0    0    0
C 930.70813541 -70.21966458 35.29390529     2    230   234   235   236
H 930.73672730 -71.74494592 33.86911881     6    233    0    0    0
H 929.28658919 -71.26210911 36.25692913     6    233    0    0    0
C 929.43596920 -67.71540506 34.41383470     1    233   237   238   239
H 929.36833080 -66.25244879 35.78952076     6    236    0    0    0
H 927.45944375 -67.97071693 33.69971738     6    236    0    0    0
H 930.48588842 -66.79008643 32.84709882     6    236    0    0    0
H 920.85550582 -82.99509285 72.24643879     6     241    0    0    0
C 921.69103545 -83.68193006 70.45947927     1     240    242    243    244
H 920.13571807 -83.85436783 69.16811134     6     241    0    0    0
H 922.71677185 -82.09164674 69.80837263     6     241    0    0    0
C 923.17811313 -86.14902769 70.48378001     2     241    245    246    247
H 921.81953681 -87.63780825 71.17430950     6     244    0    0    0
H 923.58825430 -86.64163139 68.62233384     6     244    0    0    0
C 925.48460423 -85.92524122 72.26744390     2     244    248   249   250
H 926.54106200 -87.60149145 72.20555199     6     247    0    0    0
H 926.92837593 -84.77243563 71.39946277     6     247    0    0    0
C 924.99575671 -85.12416165 74.98387209     2     247   251   252   253
H 926.96340324 -84.81515248 75.65875643     6    250    0    0    0
H 924.20812284 -83.24354039 75.31625106     6    250    0    0    0
C 923.68566158 -87.15011000 76.67128224     2    250   254   255   256
H 921.71350402 -87.40981885 76.15156795     6    253    0    0    0
H 924.42044763 -89.05638725 76.47759578     6    253    0    0    0
C 923.77245934 -86.21414875 79.42757114     2    253   257   258   259
H 925.53905923 -85.41618194 79.91350996     6    256    0    0    0
H 922.75458506 -84.52007640 79.52461159     6    256    0    0    0
C 923.09121256 -88.40570780 81.19226986     2    256   260   261   262
H 921.05144013 -88.59420968 81.29576250     6    259    0    0    0
H 923.82633892 -90.15814363 80.51376521     6    259    0    0    0
C 923.85188370 -88.08115818 83.95962621     2    259   263   264   265
H 925.62177831 -86.98685465 84.09219317     6    262    0    0    0
H 922.47531741 -86.71979004 84.68130979     6    262    0    0    0
C 923.80596048 -90.50936180 85.61695646     2    262   266   267   268
H 923.61737332 -89.96923447 87.59640908     6    265    0    0    0
H 922.14236719 -91.57427775 85.10663009     6    265    0    0    0
C 926.31687377 -92.17612744 85.35381161     2    265   269   270   271
H 926.83752207 -92.51565066 83.30011850     6    268    0    0    0
H 928.08766608 -91.13622456 86.09665702     6    268    0    0    0
C 926.10733152 -94.78510646 86.73428044     2    268   272   273   274
H 925.12071798 -94.51106207 88.56408790     6    271    0    0    0
H 925.16806798 -96.23315856 85.80201949     6    271    0    0    0
C 928.65077483 -95.98314262 87.19023669     1    271   275   276   277
H 929.51481364 -96.66697465 85.31065778     6    274    0    0    0
H 928.32470548 -97.61310584 88.38414455     6    274    0    0    0
H 930.11233249 -94.88293605 88.17052149     6    274    0    0    0
H 943.61149576 -84.60345375 57.10382088     6     279    0    0    0
C 941.80507903 -85.18625647 56.29852105     1     278    280    281    282
H 942.16296934 -85.04612446 54.28724340     6     279    0    0    0
H 941.50130594 -87.03180294 56.97771859     6     279    0    0    0
C 939.62849730 -83.28458506 56.84526511     2     279    283    284    285
H 939.25621629 -83.19906928 58.72024133     6     282    0    0    0
H 940.08261057 -81.43765357 56.01510491     6     282    0    0    0
C 937.18714251 -84.23726607 55.46970382     2     282    286   287   288
H 937.73545432 -85.14591112 53.62766982     6     285    0    0    0
H 936.20688178 -85.67988279 56.42684092     6     285    0    0    0
C 935.27176086 -82.12176127 54.69890242     2     285   289   290   291
H 934.54503742 -81.04347967 56.24138294     6    288    0    0    0
H 936.02193919 -80.68006144 53.37930748     6    288    0    0    0
C 933.03547143 -83.30166116 53.34916620     2    288   292   293   294
H 933.02509960 -82.91374742 51.36237665     6    291    0    0    0
H 933.14085505 -85.31736815 53.68718078     6    291    0    0    0
C 930.47074359 -82.29384667 54.28394657     2    291   295   296   297
H 930.26870711 -83.18171644 56.09020526     6    294    0    0    0
H 930.23674651 -80.33091366 54.47463791     6    294    0    0    0
C 928.37432948 -83.40020204 52.60461279     2    294   298   299   300

   16   -1830.5130015327      8.08E-09 Convergence criterion met
 Total energy in the final basis set = -1828.32558234
 Total job time:  15.76s(wall), 28.52s(cpu)
        *  Thank you very much for using Q-Chem.  Have a nice day.  *

User input: 2 of 2

                  Welcome to Q-Chem
     A Quantum Leap Into The Future Of Chemistry

 Q-Chem 5.4 (devel), Q-Chem, Inc., Pleasanton, CA (2021)

 E. Epifanovsky,  A. T. B. Gilbert,  Xintian Feng,  Joonho Lee,  Yuezhi Mao,
 N. Mardirossian,  P. Pokhilko,  A. White,  M. Wormit,  M. P. Coons,
 A. L. Dempwolff,  Zhengting Gan,  D. Hait,  P. R. Horn,  L. D. Jacobson,
 I. Kaliman,  J. Kussmann,  A. W. Lange,  Ka Un Lao,  D. S. Levine,  Jie Liu,
 S. C. McKenzie,  A. F. Morrison,  K. Nanda,  F. Plasser,  D. R. Rehn,
 M. L. Vidal,  Zhi-Qiang You,  Ying Zhu,  B. Alam,  B. Albrecht,
 A. Aldossary,  E. Alguire,  J. H. Andersen,  D. Barton,  K. Begam,  A. Behn,
 Y. A. Bernard,  E. J. Berquist,  H. Burton,  A. Carreras,  K. Carter-Fenk,
 R. Chakraborty,  A. D. Chien,  K. D. Closser,  V. Cofer-Shabica,
 S. Dasgupta,  Jia Deng,  M. de Wergifosse,  M. Diedenhofen,  Hainam Do,
 S. Ehlert,  Po-Tung Fang,  S. Fatehi,  Qingguo Feng,  T. Friedhoff,
 J. Gayvert,  Qinghui Ge,  G. Gidofalvi,  M. Goldey,  J. Gomes,
 C. Gonzalez-Espinoza,  S. Gulania,  A. Gunina,  M. W. D. Hanson-Heine,
 P. H. P. Harbach,  A. W. Hauser,  M. F. Herbst,  M. Hernandez Vera,
 M. Hodecker,  Z. C. Holden,  S. Houck,  Xunkun Huang,  Kerwin Hui,
 B. C. Huynh,  M. Ivanov,  Hyunjun Ji,  Hanjie Jiang,  B. Kaduk,  S. Kaehler,
 K. Khistyaev,  Jaehoon Kim,  P. Klunzinger,  Z. Koczor-Benda,
 Joong Hoon Koh,  D. Kosenkov,  L. Koulias,  T. Kowalczyk,  C. M. Krauter,
 K. Kue,  A. Kunitsa,  T. Kus,  A. Landau,  K. V. Lawler,  D. Lefrancois,
 S. Lehtola,  Rain Li,  Yi-Pei Li,  Jiashu Liang,  M. Liebenthal,
 Hung-Hsuan Lin,  You-Sheng Lin,  Fenglai Liu,  Kuan-Yu Liu,
 M. Loipersberger,  A. Luenser,  A. Manjanath,  P. Manohar,  E. Mansoor,
 S. F. Manzer,  Shan-Ping Mao,  A. V. Marenich,  T. Markovich,  S. Mason,
 S. A. Maurer,  P. F. McLaughlin,  M. F. S. J. Menger,  J.-M. Mewes,
 S. A. Mewes,  P. Morgante,  J. W. Mullinax,  K. J. Oosterbaan,  G. Paran,
 Alexander C. Paul,  Suranjan K. Paul,  F. Pavosevic,  Zheng Pei,  S. Prager,
 E. I. Proynov,  E. Ramos,  B. Rana,  A. E. Rask,  A. Rettig,  R. M. Richard,
 F. Rob,  E. Rossomme,  T. Scheele,  M. Scheurer,  M. Schneider,
 N. Sergueev,  S. M. Sharada,  W. Skomorowski,  D. W. Small,  C. J. Stein,
 Yu-Chuan Su,  E. J. Sundstrom,  Zhen Tao,  J. Thirman,  T. Tsuchimochi,
 N. M. Tubman,  S. P. Veccham,  O. Vydrov,  J. Wenzel,  J. Witte,  A. Yamada,
 Kun Yao,  S. Yeganeh,  S. R. Yost,  A. Zech,  Igor Ying Zhang,  Xing Zhang,
 Yu Zhang,  D. Zuev,  A. Aspuru-Guzik,  A. T. Bell,  N. A. Besley,
 K. B. Bravaya,  B. R. Brooks,  D. Casanova,  Jeng-Da Chai,  S. Coriani,
 C. J. Cramer,  A. E. DePrince, III,  R. A. DiStasio Jr.,  A. Dreuw,
 B. D. Dunietz,  T. R. Furlani,  W. A. Goddard III,  S. Grimme,
 S. Hammes-Schiffer,  T. Head-Gordon,  W. J. Hehre,  Chao-Ping Hsu,
 T.-C. Jagau,  Yousung Jung,  A. Klamt,  Jing Kong,  D. S. Lambrecht,
 WanZhen Liang,  N. J. Mayhall,  C. W. McCurdy,  J. B. Neaton,
 C. Ochsenfeld,  J. A. Parkhill,  R. Peverati,  V. A. Rassolov,  Yihan Shao,
 L. V. Slipchenko,  T. Stauch,  R. P. Steele,  J. E. Subotnik,
 A. J. W. Thom,  A. Tkatchenko,  D. G. Truhlar,  T. Van Voorhis,
 T. A. Wesolowski,  K. B. Whaley,  H. L. Woodcock III,  P. M. Zimmerman,
 S. Faraji,  P. M. W. Gill,  M. Head-Gordon,  J. M. Herbert,  A. I. Krylov

 Additional authors for Version 5.4.1:
 S. Kotaru,  Shaozhi Li,  Xiangyuan Li,  F. Matz,  A. Molle,  Haisheng Ren,
 Yingli Su,  Hung-Yi Tsai,  C. Utku,  Fang Wang

 Contributors to earlier versions of Q-Chem not listed above:
 R. D. Adamson,  B. Austin,  R. Baer,  J. Baker,  G. J. O. Beran,
 K. Brandhorst,  S. T. Brown,  E. F. C. Byrd,  A. K. Chakraborty,
 G. K. L. Chan,  Chun-Min Chang,  Yunqing Chen,  C.-L. Cheng,
 Siu Hung Chien,  D. M. Chipman,  D. L. Crittenden,  H. Dachsel,
 R. J. Doerksen,  A. D. Dutoi,  R. G. Edgar,  J. Fosso-Tande,
 L. Fusti-Molnar,  D. Ghosh,  A. Ghysels,  A. Golubeva-Zadorozhnaya,
 J. Gonthier,  M. S. Gordon,  S. R. Gwaltney,  G. Hawkins,  J. E. Herr,
 A. Heyden,  S. Hirata,  E. G. Hohenstein,  G. Kedziora,  F. J. Keil,
 C. Kelley,  Jihan Kim,  R. A. King,  R. Z. Khaliullin,  P. P. Korambath,
 W. Kurlancheek,  A. Laurent,  A. M. Lee,  M. S. Lee,  S. V. Levchenko,
 Ching Yeh Lin,  D. Liotard,  E. Livshits,  R. C. Lochan,  I. Lotan,
 L. A. Martinez-Martinez,  P. E. Maslen,  N. Nair,  D. P. O'Neill,
 D. Neuhauser,  E. Neuscamman,  C. M. Oana,  R. Olivares-Amaya,  R. Olson,
 T. M. Perrine,  B. Peters,  P. A. Pieniazek,  A. Prociuk,  Y. M. Rhee,
 J. Ritchie,  M. A. Rohrdanz,  E. Rosta,  N. J. Russ,  H. F. Schaefer III,
 M. W. Schmidt,  N. E. Schultz,  S. Sharma,  N. Shenvi,  C. D. Sherrill,
 A. C. Simmonett,  A. Sodt,  T. Stein,  D. Stuck,  K. S. Thanthiriwatte,
 V. Vanovschi,  L. Vogt,  Tao Wang,  A. Warshel,  M. A. Watson,
 C. F. Williams,  Q. Wu,  X. Xu,  Jun Yang,  W. Zhang,  Yan Zhao

 Please cite Q-Chem as follows:
 Y. Shao et al., Mol. Phys. 113, 184-215 (2015)
 DOI: 10.1080/00268976.2014.952696

 Q-Chem 5.4.1 for Intel X86 EM64T Linux

 Parts of Q-Chem use Armadillo 9.900.5 (Nocturnal Misbehaviour).
 http://arma.sourceforge.net/

 Q-Chem begins on Wed Jun 22 16:41:40 2022

 Host: p09r14n13.grace.hpc.yale.internal
0

     Scratch files written to /home/tl686/scratch60/qchem_dev/scratch/qchem247598//
 Processing $rem in /home/tl686/qchem_dev/qchem/config/preferences:
 Processing $rem in /home/tl686/.qchemrc:
Applying user defined connections for MM calculations
The previous job contains 0 fragments, simply inherited here

 Checking the input file for inconsistencies... 	...done.

--------------------------------------------------------------
User input:
--------------------------------------------------------------

$molecule
READ
$end

$qm_atoms
1:11
$end

$force_field_params
NumAtomTypes 3
AtomType -1   0.0238     3.11   0.2868
AtomType -2   0.07124    3.30   0.6597
AtomType -3  -0.0760     3.09   0.1434
$end

$rem
     JOBTYPE  freq
     METHOD   bp86
     BASIS    def2-msvp
     MAX_SCF_CYCLES   800
     INPUT_BOHR TRUE
     SYM_IGNORE TRUE
     SCF_GUESS     read
     user_connect            true
     qm_mm_interface         ONIOM
     force_field             oplsaa
$end

--------------------------------------------------------------

    2   -1830.5130015326      4.37E-09 Convergence criterion met
 Total energy in the final basis set = -1828.32558234

                    Orbital Energies (a.u.)
 --------------------------------------------------------------

 Alpha MOs
 -- Occupied --
******** -29.6408 -25.5979 -25.5935 -25.5811 -18.8888 -18.8847 -18.8824
-18.8779 -18.8746 -10.0613 -10.0566 -10.0561 -10.0537 -10.0371  -3.3260
 -2.1572  -2.1480  -2.1231  -1.0652  -1.0523  -1.0513  -1.0313  -1.0276
 -0.5823  -0.5294  -0.5279  -0.5173  -0.5143  -0.4551  -0.4455  -0.4381
 -0.4336  -0.4319  -0.4303  -0.4252  -0.4197  -0.4129  -0.4107  -0.4064
 -0.4020  -0.3952  -0.3874  -0.3797  -0.2860  -0.2629  -0.2453  -0.2276

          Ground-State Mulliken Net Atomic Charges

     Atom                 Charge (a.u.)
  ----------------------------------------
      1 Fe                   -0.491960
      2 C                     0.212233
      3 C                     0.209980
      4 C                     0.227101
      5 C                     0.254421
      6 C                     0.207632
      7 O                    -0.147890
      8 O                    -0.119909
      9 O                    -0.097923
     10 O                    -0.109086
     11 O                    -0.144598
  ----------------------------------------
  Sum of atomic charges =     0.000000

                    Cartesian Multipole Moments
 -----------------------------------------------------------------
    Charge (ESU x 10^10)
                -0.0000
    Dipole Moment (Debye)
         X       0.5700845786      Y       0.1136822281      Z       0.1624557012
       Tot       0.6035825798
    Quadrupole Moments (Debye-Ang)
        XX     491.2194     XY      39.6771     YY     -76.4133
        XZ     101.7344     YZ       0.0399     ZZ     -58.0383
