 Q-Chem 5.4 (devel), Q-Chem, Inc., Pleasanton, CA (2021)
 Q-Chem 5.4.1 for Intel X86 EM64T Linux

User input:
--------------------------------------------------------------
$molecule
0   1
Fe 930.12701250 -54.14570371 70.36302985    -1  0   0   0   0
C 929.17322802 -54.06706973 73.66101703    -2  0   0   0   0
C 931.22942769 -53.80711760 67.16690688    -2  0   0   0   0
C 933.18153631 -53.78500110 71.72059858    -2  0   0   0   0
C 929.15782501 -57.43496725 69.66673971    -2  0   0   0   0
C 927.77950359 -51.89320717 69.33543383    -2  0   0   0   0
O 928.51973284 -53.68536092 75.73523428    -3  0   0   0   0
O 931.93633541 -53.67129699 65.10244840    -3  0   0   0   0
O 935.07893300 -53.51602432 72.83873358    -3  0   0   0   0
O 928.69626354 -59.46608828 68.90192393    -3  0   0   0   0
O 926.41090233 -50.28490725 68.83786301    -3  0   0   0   0
H 943.25249688 -64.81722647 88.47551911      6     13    0    0    0
C 941.98175567 -65.51271702 90.09951780     1     12    14    15    16
H 943.34156463 -65.45674463 91.69146659     6     13    0    0    0
H 940.41306547 -64.15716761 90.09736442     6     13    0    0    0
C 941.34611923 -68.29155764 89.63984874     2     13    17    18    19
H 943.20331873 -69.28242072 89.40958404     6     16    0    0    0
H 940.43107117 -69.04391893 91.30433981     6     16    0    0    0
C 939.46841722 -68.61312507 87.48758512     2     16    20   21   22
H 937.74397261 -67.46423086 87.85243513     6     19    0    0    0
H 940.27432484 -67.79364587 85.77663284     6     19    0    0    0
C 938.64234113 -71.26463933 86.73013875     2     19   23   24   25
H 940.24835601 -72.42012458 86.06558607     6    22    0    0    0
H 937.77564784 -72.19924787 88.33976500     6    22    0    0    0
C 936.79586743 -71.37304580 84.51209490     2    22   26   27   28
H 935.15797382 -70.13050647 84.99946839     6    25    0    0    0
H 937.56231254 -70.38456701 82.98296373     6    25    0    0    0
C 936.10435211 -74.04594485 83.70429091     2    25   29   30   31
H 937.94097475 -74.90523102 83.17702260     6    28    0    0    0
H 935.28056783 -74.94722069 85.40531533     6    28    0    0    0
C 934.24168759 -74.17119370 81.47867440     2    28   32   33   34
H 932.37338280 -73.59888206 81.96799274     6    31    0    0    0
H 934.62231936 -72.65667663 80.29453673     6    31    0    0    0
C 933.98202096 -76.51522949 79.94168088     2    31   35   36   37
H 935.76678964 -76.87348878 79.09212288     6    34    0    0    0
H 933.57571553 -78.27464700 80.92254875     6    34    0    0    0
C 932.05894583 -76.17090884 77.78118454     2    34   38   39   40
H 930.17629295 -76.05063185 78.51466510     6    37    0    0    0
H 932.46951007 -74.28196236 76.96415698     6    37    0    0    0
C 931.96199072 -78.55424857 75.97903074     2    37   41   42   43
H 933.90178923 -78.87829749 75.56858221     6    40    0    0    0
H 931.37747586 -80.14018230 77.18266380     6    40    0    0    0
C 930.47448596 -78.26848924 73.60450762     2    40   44   45   46
H 928.38979518 -77.95214643 74.08689468     6    43    0    0    0
H 931.35973158 -76.69617712 72.49846552     6    43    0    0    0
C 930.67301300 -80.59206496 71.89449571     1    43   47   48   49
H 932.26886225 -80.56861902 70.72207031     6    46    0    0    0
H 928.88254175 -80.93051477 70.79961514     6    46    0    0    0
H 931.00686051 -82.38984971 72.90497978     6    46    0    0    0
H 926.52802111 -68.97607196 72.12988415     6     51    0    0    0
C 928.33296714 -68.08354057 71.46949646     1     50    52    53    54
H 928.01033424 -67.15674026 69.71686437     6     51    0    0    0
H 928.92766618 -67.00656746 73.06673486     6     51    0    0    0
C 930.34905072 -70.21503740 70.99226256     2     51    55    56    57
H 932.33512280 -69.49934966 70.82797397     6     54    0    0    0
H 930.53146306 -71.37858264 72.65195447     6     54    0    0    0
C 929.75863124 -71.90225202 68.80607232     2     54    58   59   60
H 929.14295602 -70.86039841 67.09515146     6     57    0    0    0
H 931.41022414 -73.14937710 68.36176461     6     57    0    0    0
C 927.51776868 -73.41201476 69.57438522     2     57   61   62   63
H 927.84526296 -74.17083222 71.39537932     6    60    0    0    0
H 925.94960929 -72.21259415 69.59320411     6    60    0    0    0
C 927.23640200 -75.54680753 67.72416355     2    60   64   65   66
H 927.55430256 -75.01575842 65.73502013     6    63    0    0    0
H 928.44517111 -77.05274759 68.20715110     6    63    0    0    0
C 924.57514643 -76.61662251 67.69423348     2    63   67   68   69
H 924.59428191 -78.03911254 66.31833830     6    66    0    0    0
H 924.05165245 -77.64877479 69.45200363     6    66    0    0    0
C 922.30705523 -74.92154737 67.31383644     2    66   70   71   72
H 922.33303078 -73.68352340 68.93313959     6    69    0    0    0
H 922.49656733 -73.71232846 65.66542726     6    69    0    0    0
C 919.73553705 -76.13733682 67.03985178     2    69   73   74   75
H 919.81856497 -77.66414097 65.64527550     6    72    0    0    0
H 919.29260636 -77.11897971 68.76553220     6    72    0    0    0
C 917.54849047 -74.17815512 66.36850446     2    72   76   77   78
H 917.12321692 -72.78267669 67.84148999     6    75    0    0    0
H 917.92630594 -73.10060859 64.73703771     6    75    0    0    0
C 915.09928868 -75.63887397 65.90803369     2    75   79   80   81
H 915.39797465 -76.80220704 64.25794160     6    78    0    0    0
H 914.81855248 -76.93227032 67.53153383     6    78    0    0    0
C 912.64910652 -74.11481454 65.07397754     2    78   82   83   84
H 912.38939009 -72.60193633 66.65248816     6    81    0    0    0
H 913.13601504 -73.08837870 63.37010432     6    81    0    0    0
C 910.22658784 -75.72749138 64.59961437     1    81   85   86   87
H 908.67812092 -74.33606549 64.70225989     6    84    0    0    0
H 910.10053480 -77.26505011 66.11843894     6    84    0    0    0
H 910.06841974 -76.83960445 62.79990953     6    84    0    0    0
H 959.01238373 -83.51648135 77.69546319     6     89    0    0    0
C 957.46319305 -84.22272142 78.88568776     1     88    90    91    92
H 957.74037477 -83.80425458 80.77017075     6     89    0    0    0
H 955.58662077 -83.13406303 78.68781327     6     89    0    0    0
C 957.34859799 -87.14598171 78.45031674     2     89    93    94    95
H 958.58754778 -87.65949813 76.71551655     6     92    0    0    0
H 958.12850413 -88.11659501 80.02361886     6     92    0    0    0
C 954.61003982 -88.12781201 77.89685759     2     92    96   97   98
H 954.02024029 -87.27798582 75.98413334     6     95    0    0    0
H 954.89890555 -90.17492257 77.75527914     6     95    0    0    0
C 952.64143533 -87.64423744 79.93160651     2     95   99   100   101
H 953.07560162 -88.93756999 81.57951415     6    98    0    0    0
H 952.67579117 -85.69745460 80.71622215     6    98    0    0    0
C 950.05157361 -88.32932695 78.99142953     2    98   102   103   104
H 949.75720894 -86.97465700 77.42123139     6    101    0    0    0
H 949.95000384 -90.11682708 78.00823840     6    101    0    0    0
C 948.13596777 -88.18732075 81.19103069     2    101   105   106   107
H 948.88846679 -88.86496570 83.05826765     6    104    0    0    0
H 947.35328970 -86.30411939 81.55345265     6    104    0    0    0
C 945.81104581 -89.67379557 80.59594824     2    104   108   109   110
H 944.73505019 -88.96489418 79.08188761     6    107    0    0    0
H 946.37641144 -91.48959858 79.70191885     6    107    0    0    0
C 943.98552111 -89.92035242 82.78285628     2    107   111   112   113
H 944.95644403 -90.73317737 84.39661137     6    110    0    0    0
H 943.13444163 -88.10212789 83.45233266     6    110    0    0    0
C 941.80714702 -91.60071892 82.09699572     2    110   114   115   116
H 940.61025892 -90.77823806 80.57615004     6    113    0    0    0
H 942.45204876 -93.35515977 81.14168950     6    113    0    0    0
C 939.66310380 -92.09661689 84.16213361     2    113   117   118   119
H 940.44042503 -92.87778857 85.78448499     6    116    0    0    0
H 938.54127392 -90.28593726 84.55524619     6    116    0    0    0
C 937.63909949 -93.92039651 82.93856628     2    116   120   121   122
H 935.90853255 -93.68208047 84.00538576     6    119    0    0    0
H 937.36557346 -93.48329465 80.98781452     6    119    0    0    0
C 938.06105096 -96.85848755 82.96573871     1    119   123   124   125
H 936.56780514 -97.89096611 82.09071219     6    122    0    0    0
H 938.57899709 -97.51770359 84.91121509     6    122    0    0    0
H 939.76748390 -97.03655994 81.90006381     6    122    0    0    0
H 949.90608578 -70.40469173 64.85653498     6     127    0    0    0
C 950.75824011 -68.72456970 65.77188350     1     126    128    129    130
H 951.74460481 -69.50178283 67.36332139     6     127    0    0    0
H 951.89525052 -68.19132554 64.20161870     6     127    0    0    0
C 948.88101465 -66.56180303 66.48153744     2     127    131    132    133
H 947.57398432 -66.27473787 64.86299937     6     130    0    0    0
H 947.40645979 -67.23059298 67.84336682     6     130    0    0    0
C 950.13912539 -63.97159102 67.06995856     2     130    134   135   136
H 951.42761954 -64.35253901 68.58487740     6     133    0    0    0
H 951.31769755 -63.50657438 65.50818950     6     133    0    0    0
C 948.26752392 -61.77674194 67.57033619     2     133   137   138   139
H 946.87286676 -61.84876584 66.09830201     6    136    0    0    0
H 947.14609044 -62.33710184 69.20726614     6    136    0    0    0
C 949.76817477 -59.30370619 67.86282814     2    136   140   141   142
H 950.95107642 -59.56519027 69.54753923     6    139    0    0    0
H 950.89923058 -59.02559206 66.18417532     6    139    0    0    0
C 948.09419496 -56.92277042 68.25852150     2    139   143   144   145
H 946.72705387 -56.79979648 66.86842896     6    142    0    0    0
H 946.91677366 -57.08857751 69.86199479     6    142    0    0    0
C 949.71978592 -54.31618385 68.35287932     2    142   146   147   148
H 951.27682007 -54.43845786 69.56404874     6    145    0    0    0
H 950.28033971 -53.71665121 66.54370020     6    145    0    0    0
C 948.16196080 -52.00994171 69.25424375     2    145   149   150   151
H 946.12636233 -52.19366309 68.59230855     6    148    0    0    0
H 948.21292682 -52.18854305 71.36213019     6    148    0    0    0
C 949.30678443 -49.55643772 68.49320170     2    148   152   153   154
H 951.16920459 -49.61298878 69.26264223     6    151    0    0    0
H 949.60775871 -49.28251740 66.47809746     6    151    0    0    0
C 947.78672196 -47.24110296 69.51467500     2    151   155   156   157
H 948.76529949 -45.43776776 68.73131830     6    154    0    0    0
H 945.82855080 -47.03558906 68.82115849     6    154    0    0    0
C 947.91658597 -46.66764700 72.50265011     2    154   158   159   160
H 946.84803360 -44.91100993 72.85456987     6    157    0    0    0
H 946.99767535 -48.26432693 73.41487145     6    157    0    0    0
C 950.60284201 -46.39556885 73.64687906     1    157   161   162   163
H 950.69109257 -46.46093131 75.72264921     6    160    0    0    0
H 951.55160063 -44.60954576 72.82267489     6    160    0    0    0
H 951.73119599 -47.88010795 73.13581488     6    160    0    0    0
H 953.36920453 -80.25678398 55.98954358     6     165    0    0    0
C 954.56964949 -78.66981378 56.56833237     1     164    166    167    168
H 953.54696306 -77.61954031 57.91155740     6     165    0    0    0
H 956.26651099 -79.39779011 57.18755131     6     165    0    0    0
C 955.05829335 -77.14694078 54.21771059     2     165    169    170    171
H 956.23265863 -78.30949826 53.00539843     6     168    0    0    0
H 953.25135112 -76.77194849 53.23072866     6     168    0    0    0
C 956.37765779 -74.68877119 55.05155940     2     168    172   173   174
H 954.96613430 -73.28957666 55.84005403     6     171    0    0    0
H 957.80765549 -74.91364128 56.59741806     6     171    0    0    0
C 957.67166137 -73.19107531 52.76827408     2     171   175   176   177
H 959.43248587 -73.92930080 51.92068533     6    174    0    0    0
H 956.12671366 -73.14367778 51.38891492     6    174    0    0    0
C 958.10019368 -70.51963897 53.51929050     2    174   178   179   180
H 956.93937878 -69.91284530 55.06143288     6    177    0    0    0
H 960.08035559 -70.47169271 54.19266377     6    177    0    0    0
C 957.76674090 -68.61803511 51.45803262     2    177   181   182   183
H 958.72862262 -69.28523161 49.82793757     6    180    0    0    0
H 955.74759738 -68.75459470 50.78218628     6    180    0    0    0
C 958.59447943 -65.86576667 52.09474593     2    180   184   185   186
H 957.43018216 -64.94010560 53.62060620     6    183    0    0    0
H 960.64275282 -66.19293901 52.64569965     6    183    0    0    0
C 958.35371788 -63.81711525 49.92470875     2    183   187   188   189
H 959.64732991 -64.37442067 48.54106363     6    186    0    0    0
H 956.40064006 -64.19576516 49.10131176     6    186    0    0    0
C 958.68938981 -61.11959802 51.30450167     2    186   190   191   192
H 956.78576066 -60.71279867 52.00617345     6    189    0    0    0
H 959.83323451 -61.53606226 53.07160164     6    189    0    0    0
C 959.70167996 -59.00912885 49.43336696     2    189   193   194   195
H 961.56661059 -59.71030173 48.54777393     6    192    0    0    0
H 958.28694157 -58.58088208 47.93238834     6    192    0    0    0
C 959.96372827 -56.64236597 51.15556257     2    192   196   197   198
H 958.11337538 -56.09914008 51.93817758     6    195    0    0    0
H 961.22264216 -57.04510560 52.71320064     6    195    0    0    0
C 961.23773034 -54.47857814 49.68919406     1    195   199   200   201
H 960.19778589 -53.78245761 47.96492598     6    198    0    0    0
H 963.10571005 -54.91829506 49.32503154     6    198    0    0    0
H 961.25243014 -52.83875913 50.82353864     6    198    0    0    0
H 938.41122409 -75.06467174 55.63355180     6     203    0    0    0
C 940.20159022 -74.07375932 54.97784899     1     202    204    205    206
H 939.93607191 -72.43101062 53.93299446     6     203    0    0    0
H 941.02415742 -73.56189280 56.78030592     6     203    0    0    0
C 941.87279032 -75.86256886 53.57747864     2     203    207    208    209
H 943.83650680 -75.09740981 53.17302096     6     206    0    0    0
H 942.48684108 -77.24007566 54.96593548     6     206    0    0    0
C 940.59169841 -77.21172341 51.30651000     2     206    210   211   212
H 941.59535773 -78.80653450 50.63171498     6     209    0    0    0
H 938.83020757 -77.97948441 51.85126052     6     209    0    0    0
C 940.33885606 -75.45741846 49.01287815     2     209   213   214   215
H 939.88124077 -73.50042481 49.44317400     6    212    0    0    0
H 942.13903745 -75.22018668 48.14634144     6    212    0    0    0
C 938.83184835 -76.71403060 46.93525134     2    212   216   217   218
H 939.74132801 -78.32556586 46.10745928     6    215    0    0    0
H 937.12498386 -77.38800329 47.83617256     6    215    0    0    0
C 937.93179794 -74.90040688 44.78061909     2    215   219   220   221
H 937.31762724 -73.02469389 45.42154130     6    218    0    0    0
H 939.65945995 -74.48237841 43.77476065     6    218    0    0    0
C 935.88577089 -75.73407620 42.89456092     2    218   222   223   224
H 936.53633576 -77.51789551 42.20841185     6    221    0    0    0
H 934.02208045 -76.02811311 43.78860631     6    221    0    0    0
C 935.76289866 -73.73809664 40.74936282     2    221   225   226   227
H 935.09376218 -71.88215236 41.58899317     6    224    0    0    0
H 937.61201404 -73.63792443 40.05052242     6    224    0    0    0
C 934.05817207 -74.45316675 38.39546539     2    224   228   229   230
H 935.04333220 -76.03790470 37.36562404     6    227    0    0    0
H 932.22773313 -75.41577566 39.03123535     6    227    0    0    0
C 933.38722775 -72.46733756 36.50851058     2    227   231   232   233
H 932.03463369 -71.16956255 37.26570025     6    230    0    0    0
H 935.02255429 -71.39182427 36.07128172     6    230    0    0    0
C 932.54578692 -73.60061819 34.06305779     2    230   234   235   236
H 932.07894412 -72.05381794 32.83821800     6    233    0    0    0
H 934.03201760 -74.68901003 33.11260109     6    233    0    0    0
C 930.34198120 -75.59826341 34.43001009     1    233   237   238   239
H 928.77351178 -74.51346187 35.42360695     6    236    0    0    0
H 930.69906285 -77.44478131 35.43009857     6    236    0    0    0
H 929.89301266 -76.12551190 32.42302427     6    236    0    0    0
H 918.94367477 -82.70849645 70.40320807     6     241    0    0    0
C 919.45517301 -83.34053341 68.52699509     1     240    242    243    244
H 917.58430368 -83.79824758 67.50603786     6     241    0    0    0
H 920.20871831 -81.79907475 67.34734149     6     241    0    0    0
C 921.30124181 -85.72271312 68.36705455     2     241    245    246    247
H 920.51795972 -87.45256968 69.13885276     6     244    0    0    0
H 921.67787182 -86.20785417 66.40477249     6     244    0    0    0
C 923.80874320 -85.02533146 69.50718974     2     244    248   249   250
H 925.29311362 -86.33577088 68.83001705     6     247    0    0    0
H 924.31540116 -83.18305484 68.76327022     6     247    0    0    0
C 923.78218672 -84.81118381 72.46775894     2     247   251   252   253
H 925.71060425 -84.23816925 73.11507408     6    250    0    0    0
H 922.47681988 -83.25934489 73.06483410     6    250    0    0    0
C 923.22394430 -87.29088010 73.73208023     2    250   254   255   256
H 921.33245032 -87.75485220 73.10543787     6    253    0    0    0
H 924.10504861 -88.88966847 72.73037492     6    253    0    0    0
C 923.91894440 -87.35066434 76.40592838     2    253   257   258   259
H 926.00022164 -87.30606418 76.51089495     6    256    0    0    0
H 923.33172533 -85.47413962 77.23280716     6    256    0    0    0
C 922.86895489 -89.47125622 78.11949562     2    256   260   261   262
H 920.85815523 -89.44920533 78.27581561     6    259    0    0    0
H 923.06915969 -91.12164579 77.14362439     6    259    0    0    0
C 924.13367541 -89.66505700 80.77780771     2    259   263   264   265
H 926.12914671 -90.17092758 80.32563626     6    262    0    0    0
H 924.05199324 -87.70497070 81.53371483     6    262    0    0    0
C 922.77450170 -91.57100800 82.61817714     2    262   266   267   268
H 922.99329441 -91.13513104 84.58586097     6    265    0    0    0
H 920.87603173 -91.21189669 82.34285313     6    265    0    0    0
C 923.17367982 -94.31473955 82.06382443     2    265   269   270   271
H 922.65193849 -95.07295280 80.24220990     6    268    0    0    0
H 925.25780825 -94.67909392 82.20591708     6    268    0    0    0
C 921.76272861 -96.07020217 83.95945790     2    268   272   273   274
H 921.55020453 -95.26080049 85.82237429     6    271    0    0    0
H 919.91093556 -96.24463683 83.08905499     6    271    0    0    0
C 923.01908058 -98.69254928 84.03099739     1    271   275   276   277
H 923.14337615 -99.31083921 82.23049207     6    274    0    0    0
H 921.99418816 -100.11539301 85.02114468     6    274    0    0    0
H 924.85976016 -98.41186425 85.03855998     6    274    0    0    0
H 943.36115138 -83.43147269 55.49130609     6     279    0    0    0
C 941.86016055 -83.88995080 56.89481709     1     278    280    281    282
H 941.42642209 -86.02642862 57.20519475     6     279    0    0    0
H 942.36434959 -83.08141278 58.76001417     6     279    0    0    0
C 939.60898315 -82.76224199 55.39846252     2     279    283    284    285
H 939.77421502 -80.59950877 55.64721591     6     282    0    0    0
H 939.92848853 -83.28315924 53.43701205     6     282    0    0    0
C 937.11449610 -83.73655668 56.09575551     2     282    286   287   288
H 937.16015859 -85.77169685 55.90503325     6     285    0    0    0
H 936.94338697 -83.39646863 58.10643770     6     285    0    0    0
C 934.77448433 -82.56805979 54.81242358     2     285   289   290   291
H 934.54254338 -80.55471502 55.38775792     6    288    0    0    0
H 935.09430621 -82.61177949 52.80031123     6    288    0    0    0
C 932.51926933 -84.18569776 55.44589320     2    288   292   293   294
H 932.86611666 -86.00337952 54.61430324     6    291    0    0    0
H 932.39596280 -84.59832057 57.40414389     6    291    0    0    0
C 930.20221777 -82.93429730 54.28127627     2    291   295   296   297
H 929.82170591 -80.92550355 54.94912263     6    294    0    0    0
H 930.39092884 -82.98777330 52.16967142     6    294    0    0    0
C 927.84259902 -84.38658351 54.96023136     2    294   298   299   300

   17   -1830.5207322282      9.38E-09 Convergence criterion met
 Total energy in the final basis set = -1828.27722424

                    Orbital Energies (a.u.)
 --------------------------------------------------------------

 Alpha MOs
 -- Occupied --
******** -29.6346 -25.5940 -25.5832 -25.5767 -18.8878 -18.8867 -18.8798
-18.8783 -18.8699 -10.0561 -10.0553 -10.0462 -10.0421 -10.0401  -3.3192
 -2.1549  -2.1339  -2.1187  -1.0649  -1.0599  -1.0565  -1.0455  -1.0383
 -0.5761  -0.5315  -0.5190  -0.5156  -0.5123  -0.4590  -0.4467  -0.4414
 -0.4376  -0.4319  -0.4274  -0.4242  -0.4214  -0.4137  -0.4098  -0.4074
 -0.4044  -0.3990  -0.3950  -0.3751  -0.2795  -0.2685  -0.2359  -0.2186

          Ground-State Mulliken Net Atomic Charges

     Atom                 Charge (a.u.)
  ----------------------------------------
      1 Fe                   -0.471926
      2 C                     0.199825
      3 C                     0.192095
      4 C                     0.195732
      5 C                     0.243138
      6 C                     0.203502
      7 O                    -0.110925
      8 O                    -0.103055
      9 O                    -0.131174
     10 O                    -0.118222
     11 O                    -0.098989
  ----------------------------------------
  Sum of atomic charges =     0.000000

                    Cartesian Multipole Moments
 -----------------------------------------------------------------
    Charge (ESU x 10^10)
                -0.0000
    Dipole Moment (Debye)
         X      -0.3049043171      Y      -0.1670971322      Z      -0.2131137563
       Tot       0.4078057961
    Quadrupole Moments (Debye-Ang)
        XX    -369.7256     XY     -73.3095     YY     -60.1740
        XZ    -117.1051     YZ      -1.1133     ZZ     -85.3217

 Total job time:  29.21s(wall), 26.68s(cpu)
        *  Thank you very much for using Q-Chem.  Have a nice day.  *
