 Q-Chem 5.4 (devel), Q-Chem, Inc., Pleasanton, CA (2021)
 Q-Chem 5.4.1 for Intel X86 EM64T Linux

User input:
--------------------------------------------------------------
$molecule
0   1
 Fe 928.97859139 -53.63299491 68.56426964    -1  0   0   0   0
C 928.08209037 -53.39994260 71.78862641    -2  0   0   0   0
C 929.39377120 -53.98305348 65.12543955    -2  0   0   0   0
C 932.44700017 -53.51535398 69.28630706    -2  0   0   0   0
C 928.30523465 -57.03764788 68.36477879    -2  0   0   0   0
C 926.77640915 -51.18144516 68.42325141    -2  0   0   0   0
O 927.49819102 -53.12446304 73.89747174    -3  0   0   0   0
O 929.72435204 -54.01843361 62.95848124    -3  0   0   0   0
O 934.48936974 -53.95047939 69.98533392    -3  0   0   0   0
O 927.94281018 -59.18727598 68.50041606    -3  0   0   0   0
O 925.35015722 -49.58507495 68.08909852    -3  0   0   0   0
H 943.96543524 -69.01160882 91.54226715      6     13    0    0    0
C 942.22540835 -69.54721990 90.58081427     1     12    14    15    16
H 941.42133197 -70.93399182 91.95514169     6     13    0    0    0
H 941.12445479 -67.70849424 90.38701425     6     13    0    0    0
C 942.48030749 -70.92321770 88.06110614     2     13    17    18    19
H 943.71079218 -69.64691965 87.02269240     6     16    0    0    0
H 943.44520403 -72.73280467 88.32163253     6     16    0    0    0
C 939.91946924 -71.26969697 86.67099655     2     16    20   21   22
H 938.66941084 -72.23460969 88.00561822     6     19    0    0    0
H 938.78476101 -69.40013948 86.38698144     6     19    0    0    0
C 940.24989196 -72.58075215 84.09627332     2     19   23   24   25
H 941.40918229 -71.41512164 82.91735904     6    22    0    0    0
H 941.29991759 -74.37114272 84.44354956     6    22    0    0    0
C 937.62051228 -73.03648543 82.76882061     2    22   26   27   28
H 936.52107035 -73.71131650 84.16782216     6    25    0    0    0
H 936.91191022 -71.21606416 81.89234078     6    25    0    0    0
C 937.55757372 -74.94137136 80.56879651     2    25   29   30   31
H 938.68645654 -74.36815516 79.00287626     6    28    0    0    0
H 938.63020769 -76.48699658 81.13950802     6    28    0    0    0
C 934.84042668 -75.45057044 79.83333785     2    28   32   33   34
H 933.70839417 -75.79351141 81.44284193     6    31    0    0    0
H 933.98686591 -73.79879581 78.84183731     6    31    0    0    0
C 934.46593801 -77.40312578 77.84706316     2    31   35   36   37
H 935.63440800 -76.66611603 76.40290189     6    34    0    0    0
H 935.18260339 -79.28576624 78.45118681     6    34    0    0    0
C 931.89425647 -77.30856805 76.60746732     2    34   38   39   40
H 930.28301369 -77.44233518 77.89946411     6    37    0    0    0
H 931.61681538 -75.46688105 75.63384211     6    37    0    0    0
C 931.98229677 -79.43273192 74.51079725     2    37   41   42   43
H 933.88072012 -79.52466429 73.66796499     6    40    0    0    0
H 931.60923168 -81.34164319 75.30978312     6    40    0    0    0
C 930.06600284 -79.00085078 72.42188996     2    40   44   45   46
H 928.22518322 -78.93597063 73.31503075     6    43    0    0    0
H 930.47649661 -77.16908534 71.59009618     6    43    0    0    0
C 930.17800552 -80.90624293 70.36471769     1    43   47   48   49
H 931.96922751 -80.96040509 69.26241238     6    46    0    0    0
H 928.67833179 -80.51555727 69.01802074     6    46    0    0    0
H 929.72178409 -82.72758520 71.26387350     6    46    0    0    0
H 927.49963967 -68.93715117 70.67904956     6     51    0    0    0
C 929.44414673 -68.47532859 70.79376090     1     50    52    53    54
H 929.78710470 -67.13014105 69.23149211     6     51    0    0    0
H 929.77379058 -67.71539218 72.66274568     6     51    0    0    0
C 931.11593466 -70.79375752 70.27532099     2     51    55    56    57
H 932.98591016 -70.10917865 70.09006702     6     54    0    0    0
H 931.04564423 -71.87155533 72.02956818     6     54    0    0    0
C 930.17010850 -72.29437278 68.00435747     2     54    58   59   60
H 930.24637266 -71.29102041 66.22810727     6     57    0    0    0
H 931.25954236 -73.91914747 67.76788263     6     57    0    0    0
C 927.38745726 -73.31065648 68.21275682     2     57   61   62   63
H 927.05701005 -74.22209260 70.03479059     6    60    0    0    0
H 926.20950137 -71.65527247 67.96544670     6    60    0    0    0
C 927.02924150 -75.44417741 66.25605881     2    60   64   65   66
H 927.31106422 -74.51740300 64.51125099     6    63    0    0    0
H 928.49506072 -76.83267115 66.59810600     6    63    0    0    0
C 924.43862167 -76.84056121 66.61914298     2    63   67   68   69
H 924.24606395 -78.67634857 65.50924454     6    66    0    0    0
H 924.09417226 -77.26608624 68.55680027     6    66    0    0    0
C 922.16734451 -75.12719512 65.87413821     2    66   70   71   72
H 922.29321748 -73.15630830 66.54985491     6    69    0    0    0
H 922.21646348 -74.93839868 63.80419964     6    69    0    0    0
C 919.69972143 -76.26320854 66.67147077     2    69   73   74   75
H 919.42024631 -78.15359803 65.92969764     6    72    0    0    0
H 919.75220961 -76.81196443 68.65531520     6    72    0    0    0
C 917.31237643 -74.67233225 65.78722510     2    72   76   77   78
H 917.63550333 -72.66044299 66.06197545     6    75    0    0    0
H 917.05171996 -74.91068258 63.68472604     6    75    0    0    0
C 914.85161271 -75.38924194 67.15201990     2    75   79   80   81
H 914.51880035 -77.42103624 67.13462681     6    78    0    0    0
H 915.05828483 -74.85341238 69.13875153     6    78    0    0    0
C 912.33844165 -74.16624601 66.31231142     2    78   82   83   84
H 912.14839823 -72.30219249 66.88242101     6    81    0    0    0
H 912.36193555 -74.07226873 64.28497089     6    81    0    0    0
C 910.05400381 -75.69324913 67.31086343     1    81   85   86   87
H 908.20196972 -74.91232021 66.88454031     6    84    0    0    0
H 910.13779556 -76.18452811 69.27948760     6    84    0    0    0
H 909.85995475 -77.48894385 66.16653874     6    84    0    0    0
H 960.34086961 -84.32576716 80.69687611     6     89    0    0    0
C 958.38119002 -84.79912645 80.98092932     1     88    90    91    92
H 958.28939206 -86.75775395 81.92289607     6     89    0    0    0
H 957.97317026 -83.39440010 82.28418760     6     89    0    0    0
C 956.56027965 -84.37245865 78.86897121     2     89    93    94    95
H 956.77956134 -82.51900365 78.10917512     6     92    0    0    0
H 956.80190674 -85.71795358 77.19670362     6     92    0    0    0
C 953.71190550 -84.67290474 79.53750520     2     92    96   97   98
H 953.44674532 -83.66822359 81.25157542     6     95    0    0    0
H 952.61227315 -83.64831160 78.09613907     6     95    0    0    0
C 952.53864424 -87.33597549 80.04492527     2     95   99   100   101
H 952.90942348 -88.22345614 78.34737967     6    98    0    0    0
H 953.27557976 -88.60065298 81.46668248     6    98    0    0    0
C 949.65398649 -87.15974120 80.45681421     2    98   102   103   104
H 949.04168863 -85.88867332 82.00469468     6    101    0    0    0
H 948.72601595 -86.55907620 78.62461478     6    101    0    0    0
C 948.57941009 -89.79142124 81.37248668     2    101   105   106   107
H 949.66222443 -91.20671068 80.36768305     6    104    0    0    0
H 949.11597034 -90.13879290 83.46745561     6    104    0    0    0
C 945.73696119 -89.76462445 80.99897195     2    104   108   109   110
H 944.54676658 -88.14718043 81.77976488     6    107    0    0    0
H 945.25614499 -89.89404651 78.98873988     6    107    0    0    0
C 944.49951453 -91.91117362 82.40034061     2    107   111   112   113
H 945.76692919 -93.61243649 82.26247155     6    110    0    0    0
H 944.35821593 -91.25916190 84.33428888     6    110    0    0    0
C 941.82965132 -92.28266325 81.24247899     2    110   114   115   116
H 940.97917926 -90.45247845 80.99039076     6    113    0    0    0
H 941.95407824 -93.08524292 79.38268919     6    113    0    0    0
C 940.21323253 -93.97694391 82.72017761     2    113   117   118   119
H 941.17594025 -95.98857290 82.89994820     6    116    0    0    0
H 939.83150817 -93.08473667 84.48047712     6    116    0    0    0
C 937.71942623 -94.18314236 81.22715764     2    116   120   121   122
H 936.29242354 -95.07911508 82.35170378     6    119    0    0    0
H 937.00489562 -92.34471049 80.54645966     6    119    0    0    0
C 938.06015667 -95.91248451 78.80362511     1    119   123   124   125
H 936.20770216 -97.01157925 78.39227477     6    122    0    0    0
H 939.54076211 -97.35923701 78.95205507     6    122    0    0    0
H 938.47449289 -94.77236802 77.10843616     6    122    0    0    0
H 949.32122751 -69.44200821 71.68477924     6     127    0    0    0
C 950.66001568 -68.11179768 71.11582069     1     126    128    129    130
H 951.97183751 -67.58503005 72.63576224     6     127    0    0    0
H 951.79743576 -68.56215572 69.56243167     6     127    0    0    0
C 949.27257789 -65.80435998 70.17341827     2     127    131    132    133
H 947.99347029 -66.46173953 68.63280427     6     130    0    0    0
H 948.09596956 -65.33440948 71.83684604     6     130    0    0    0
C 950.94838460 -63.58258640 69.16517800     2     130    134   135   136
H 952.60365447 -63.35030752 70.32306777     6     133    0    0    0
H 951.58212078 -64.27187461 67.41775174     6     133    0    0    0
C 949.19287389 -61.23923763 68.75377756     2     133   137   138   139
H 947.91527890 -61.59553657 67.18072558     6    136    0    0    0
H 947.93060992 -61.01735279 70.25720026     6    136    0    0    0
C 950.88017636 -58.95262579 68.37783252     2    136   140   141   142
H 952.39531305 -59.01257932 69.79949891     6    139    0    0    0
H 951.77055231 -59.02604158 66.48844506     6    139    0    0    0
C 949.20412425 -56.74450723 68.96575472     2    139   143   144   145
H 947.65501055 -56.69604018 67.55568260     6    142    0    0    0
H 948.53139649 -56.98576018 70.80250344     6    142    0    0    0
C 950.66747654 -54.29661430 68.81134449     2    142   146   147   148
H 952.39233443 -54.15099365 69.92035270     6    145    0    0    0
H 951.60422149 -54.23401946 66.90200689     6    145    0    0    0
C 949.16885698 -51.86292722 69.46209588     2    145   149   150   151
H 947.60685979 -51.68262323 68.17778109     6    148    0    0    0
H 948.26424347 -52.12360980 71.23604922     6    148    0    0    0
C 950.68506918 -49.38664082 69.20808449     2    148   152   153   154
H 952.24410675 -49.19262690 70.60065453     6    151    0    0    0
H 951.71013013 -49.39730670 67.46513656     6    151    0    0    0
C 949.09152378 -46.92935377 69.40980317     2    151   155   156   157
H 950.17883872 -45.32947188 68.86447157     6    154    0    0    0
H 947.64271822 -47.21304110 68.03677923     6    154    0    0    0
C 947.63144453 -46.65903858 71.98651105     2    154   158   159   160
H 946.12021110 -45.29696303 71.74187903     6    157    0    0    0
H 946.63697605 -48.43917873 72.15527417     6    157    0    0    0
C 949.38432108 -46.35728654 74.40497331     1    157   161   162   163
H 948.36711069 -45.69891268 76.13180942     6    160    0    0    0
H 950.90813888 -45.16017502 74.21752352     6    160    0    0    0
H 950.20460876 -48.36326247 74.63036289     6    160    0    0    0
H 955.58790485 -79.71640571 57.87294520     6     165    0    0    0
C 955.30151715 -77.94579475 58.68290446     1     164    166    167    168
H 953.41203070 -77.71410487 59.30619149     6     165    0    0    0
H 956.49168145 -77.66026042 60.33637083     6     165    0    0    0
C 955.64891738 -76.03707433 56.52524517     2     165    169    170    171
H 957.41770511 -76.47732514 55.42887847     6     168    0    0    0
H 954.11531714 -76.05573118 55.16771184     6     168    0    0    0
C 956.18601690 -73.42859435 57.29275188     2     168    172   173   174
H 954.61474510 -72.64022938 58.32858564     6     171    0    0    0
H 957.75616048 -73.33614321 58.52981414     6     171    0    0    0
C 956.56127987 -71.65959321 55.01096387     2     171   175   176   177
H 957.50275789 -72.71332861 53.42053803     6    174    0    0    0
H 954.69229086 -71.08807763 54.28551516     6    174    0    0    0
C 958.25516273 -69.35118033 55.56232495     2    174   178   179   180
H 957.95326611 -68.58925035 57.49486790     6    177    0    0    0
H 960.18158505 -70.03853462 55.60475598     6    177    0    0    0
C 958.00951582 -67.14786725 53.70651542     2    177   181   182   183
H 957.89701315 -67.81940999 51.67413241     6    180    0    0    0
H 956.11295777 -66.31521234 53.89907873     6    180    0    0    0
C 960.25378035 -65.17201812 53.84972439     2    180   184   185   186
H 961.17366752 -65.17053215 55.73523308     6    183    0    0    0
H 961.82867366 -65.76423211 52.57088321     6    183    0    0    0
C 959.26816658 -62.55677238 53.10375025     2    183   187   188   189
H 958.20329977 -62.74283597 51.24397688     6    186    0    0    0
H 958.11180455 -62.01362717 54.61617900     6    186    0    0    0
C 961.39768000 -60.58506469 52.65083468     2    186   190   191   192
H 962.34158255 -60.45226033 54.46174307     6    189    0    0    0
H 962.59858665 -61.57716864 51.44263892     6    189    0    0    0
C 959.91681517 -58.25776852 51.47549698     2    189   193   194   195
H 958.82266299 -58.93144216 49.90787209     6    192    0    0    0
H 958.63402417 -57.61281545 52.94146058     6    192    0    0    0
C 961.71111177 -56.19789633 50.47278736     2    192   196   197   198
H 962.94111627 -55.37122505 51.92712626     6    195    0    0    0
H 963.18928322 -56.93952805 49.11718590     6    195    0    0    0
C 960.32389634 -54.32047247 48.83232836     1    195   199   200   201
H 958.75312583 -53.69486996 49.75594113     6    198    0    0    0
H 959.62246292 -55.13613622 47.05966364     6    198    0    0    0
H 961.42312359 -52.63984733 48.42479100     6    198    0    0    0
H 939.61352556 -75.32932635 56.67533419     6     203    0    0    0
C 939.14706639 -73.99164166 55.20700158     1     202    204    205    206
H 937.12802409 -74.62213947 54.69175869     6     203    0    0    0
H 939.24049117 -72.14226248 56.27651196     6     203    0    0    0
C 941.15073467 -74.08879403 52.95546249     2     203    207    208    209
H 941.43144491 -72.22431612 52.12528337     6     206    0    0    0
H 943.12975237 -74.19763843 53.58440360     6     206    0    0    0
C 940.40052320 -75.99932604 51.01557815     2     206    210   211   212
H 942.03589384 -76.41002107 49.79200481     6     209    0    0    0
H 939.92929319 -77.90756893 51.70586295     6     209    0    0    0
C 938.05750308 -75.22309348 49.43004887     2     209   213   214   215
H 936.47658221 -76.10983734 50.41809038     6    212    0    0    0
H 937.61634383 -73.18542893 49.71649546     6    212    0    0    0
C 938.46378327 -75.60438569 46.48255362     2    212   216   217   218
H 940.14431899 -74.39173600 45.89160180     6    215    0    0    0
H 939.10832638 -77.57250861 46.00571314     6    215    0    0    0
C 936.09888633 -74.82259128 45.02315867     2    215   219   220   221
H 934.52229353 -75.97247749 45.53883419     6    218    0    0    0
H 935.88914930 -72.91276820 45.94687762     6    218    0    0    0
C 936.62695078 -74.32887221 42.29272404     2    218   222   223   224
H 937.65556575 -72.58052197 42.13017394     6    221    0    0    0
H 937.44959301 -75.79300228 41.25919383     6    221    0    0    0
C 934.11114089 -73.55470863 40.99581760     2    221   225   226   227
H 932.71096904 -74.96089100 41.34329992     6    224    0    0    0
H 933.44572248 -71.79848249 42.01219053     6    224    0    0    0
C 934.24940036 -72.70968989 38.22998287     2    224   228   229   230
H 935.70142087 -71.21679660 38.20809639     6    227    0    0    0
H 935.19969443 -74.19972800 37.11917788     6    227    0    0    0
C 931.78806549 -71.54870563 36.90514154     2    227   231   232   233
H 930.46695520 -73.16876574 36.65626211     6    230    0    0    0
H 930.99815570 -70.00041510 38.08378629     6    230    0    0    0
C 932.53767275 -70.46689954 34.23773790     2    230   234   235   236
H 934.26539871 -69.22813603 34.31138573     6    233    0    0    0
H 933.10108113 -72.10920181 33.22274819     6    233    0    0    0
C 930.26202843 -69.11055459 33.07715882     1    233   237   238   239
H 928.80012652 -70.42219214 32.78699433     6    236    0    0    0
H 930.68319798 -68.52418993 31.11235230     6    236    0    0    0
H 929.48573338 -67.57765512 34.25575715     6    236    0    0    0
H 918.75780469 -82.57598166 72.86751447     6     241    0    0    0
C 918.88886222 -82.97554374 70.78869542     1     240    242    243    244
H 917.07767397 -83.27748687 69.94974268     6     241    0    0    0
H 919.72722713 -81.28370123 69.96457949     6     241    0    0    0
C 920.36493440 -85.40969452 70.32152345     2     241    245    246    247
H 919.41818793 -87.08708952 71.09375599     6     244    0    0    0
H 920.31355405 -85.44422333 68.31602413     6     244    0    0    0
C 923.16987194 -85.25910462 71.26872637     2     244    248   249   250
H 923.92965406 -86.98830926 70.65607544     6     247    0    0    0
H 924.28936382 -83.84777612 70.21051278     6     247    0    0    0
C 923.47052517 -84.94656372 74.21647694     2     247   251   252   253
H 925.25951358 -84.16376699 74.64836683     6    250    0    0    0
H 922.27994371 -83.56279290 75.14650339     6    250    0    0    0
C 923.36553865 -87.55997418 75.53155178     2    250   254   255   256
H 921.82916387 -88.62925117 74.53958224     6    253    0    0    0
H 925.06887337 -88.54052764 74.96919359     6    253    0    0    0
C 923.14009763 -87.67361912 78.41166385     2    253   257   258   259
H 924.40377788 -86.19702306 79.28337557     6    256    0    0    0
H 921.22570309 -86.84173593 78.81084053     6    256    0    0    0
C 923.72431536 -90.23155222 79.59744619     2    256   260   261   262
H 922.42213331 -91.66071546 78.74801159     6    259    0    0    0
H 925.70642629 -90.79303820 78.99277084     6    259    0    0    0
C 923.71078116 -89.76745926 82.43831624     2    259   263   264   265
H 925.34793411 -88.77659747 83.14124960     6    262    0    0    0
H 922.10042123 -88.47956484 82.87593343     6    262    0    0    0
C 923.49695413 -92.32664091 83.86832890     2    262   266   267   268
H 922.95706089 -91.53737540 85.82059805     6    265    0    0    0
H 921.94541013 -93.67482752 83.29410847     6    265    0    0    0
C 925.90969748 -93.79532717 84.00228779     2    265   269   270   271
H 926.50208363 -94.54321439 82.12923627     6    268    0    0    0
H 927.54317076 -92.64167602 84.59226171     6    268    0    0    0
C 925.67086549 -96.02462761 85.77581194     2    268   272   273   274
H 925.52643607 -95.38431495 87.77831494     6    271    0    0    0
H 923.89824067 -96.94960096 85.48940852     6    271    0    0    0
C 927.81649884 -97.97795180 85.68440814     1    271   275   276   277
H 928.17263968 -99.08592965 83.80216949     6    274    0    0    0
H 927.70100801 -99.44906513 87.09628764     6    274    0    0    0
H 929.66011642 -97.14734719 85.87316529     6    274    0    0    0
H 943.81529759 -80.87869778 58.44308218     6     279    0    0    0
C 942.23780534 -82.13862021 58.74970603     1     278    280    281    282
H 943.18817838 -83.85275344 59.19636609     6     279    0    0    0
H 941.05006405 -81.36415595 60.27525804     6     279    0    0    0
C 940.39462595 -82.45662873 56.36656653     2     279    283    284    285
H 939.80437908 -80.52910559 55.99045675     6     282    0    0    0
H 941.70433798 -82.87359676 54.71873602     6     282    0    0    0
C 938.24663121 -84.37138677 56.77480127     2     282    286   287   288
H 938.58813697 -86.39826837 56.54362751     6     285    0    0    0
H 937.32286426 -83.89718545 58.47276090     6     285    0    0    0
C 936.07799381 -83.77741849 55.03789126     2     285   289   290   291
H 935.65655686 -81.80016397 55.28445846     6    288    0    0    0
H 936.65705420 -83.90689463 53.08934020     6    288    0    0    0
C 933.73652387 -85.43918088 55.47986676     2    288   292   293   294
H 933.87502394 -87.23676925 54.53361541     6    291    0    0    0
H 933.27712026 -85.93561517 57.53740255     6    291    0    0    0
C 931.30868515 -84.19176651 54.47317699     2    291   295   296   297
H 931.02010283 -82.30101603 54.84785629     6    294    0    0    0
H 931.46509370 -84.46344740 52.49155721     6    294    0    0    0
C 929.00036004 -85.63291924 55.19047312     2    294   298   299   300

   17   -1830.5136968416      9.07E-09 Convergence criterion met
 Total energy in the final basis set = -1828.23678845
 Total job time:  17.50s(wall), 30.33s(cpu)
        *  Thank you very much for using Q-Chem.  Have a nice day.  *

User input: 2 of 2

                  Welcome to Q-Chem
     A Quantum Leap Into The Future Of Chemistry

 Q-Chem 5.4 (devel), Q-Chem, Inc., Pleasanton, CA (2021)

 E. Epifanovsky,  A. T. B. Gilbert,  Xintian Feng,  Joonho Lee,  Yuezhi Mao,
 N. Mardirossian,  P. Pokhilko,  A. White,  M. Wormit,  M. P. Coons,
 A. L. Dempwolff,  Zhengting Gan,  D. Hait,  P. R. Horn,  L. D. Jacobson,
 I. Kaliman,  J. Kussmann,  A. W. Lange,  Ka Un Lao,  D. S. Levine,  Jie Liu,
 S. C. McKenzie,  A. F. Morrison,  K. Nanda,  F. Plasser,  D. R. Rehn,
 M. L. Vidal,  Zhi-Qiang You,  Ying Zhu,  B. Alam,  B. Albrecht,
 A. Aldossary,  E. Alguire,  J. H. Andersen,  D. Barton,  K. Begam,  A. Behn,
 Y. A. Bernard,  E. J. Berquist,  H. Burton,  A. Carreras,  K. Carter-Fenk,
 R. Chakraborty,  A. D. Chien,  K. D. Closser,  V. Cofer-Shabica,
 S. Dasgupta,  Jia Deng,  M. de Wergifosse,  M. Diedenhofen,  Hainam Do,
 S. Ehlert,  Po-Tung Fang,  S. Fatehi,  Qingguo Feng,  T. Friedhoff,
 J. Gayvert,  Qinghui Ge,  G. Gidofalvi,  M. Goldey,  J. Gomes,
 C. Gonzalez-Espinoza,  S. Gulania,  A. Gunina,  M. W. D. Hanson-Heine,
 P. H. P. Harbach,  A. W. Hauser,  M. F. Herbst,  M. Hernandez Vera,
 M. Hodecker,  Z. C. Holden,  S. Houck,  Xunkun Huang,  Kerwin Hui,
 B. C. Huynh,  M. Ivanov,  Hyunjun Ji,  Hanjie Jiang,  B. Kaduk,  S. Kaehler,
 K. Khistyaev,  Jaehoon Kim,  P. Klunzinger,  Z. Koczor-Benda,
 Joong Hoon Koh,  D. Kosenkov,  L. Koulias,  T. Kowalczyk,  C. M. Krauter,
 K. Kue,  A. Kunitsa,  T. Kus,  A. Landau,  K. V. Lawler,  D. Lefrancois,
 S. Lehtola,  Rain Li,  Yi-Pei Li,  Jiashu Liang,  M. Liebenthal,
 Hung-Hsuan Lin,  You-Sheng Lin,  Fenglai Liu,  Kuan-Yu Liu,
 M. Loipersberger,  A. Luenser,  A. Manjanath,  P. Manohar,  E. Mansoor,
 S. F. Manzer,  Shan-Ping Mao,  A. V. Marenich,  T. Markovich,  S. Mason,
 S. A. Maurer,  P. F. McLaughlin,  M. F. S. J. Menger,  J.-M. Mewes,
 S. A. Mewes,  P. Morgante,  J. W. Mullinax,  K. J. Oosterbaan,  G. Paran,
 Alexander C. Paul,  Suranjan K. Paul,  F. Pavosevic,  Zheng Pei,  S. Prager,
 E. I. Proynov,  E. Ramos,  B. Rana,  A. E. Rask,  A. Rettig,  R. M. Richard,
 F. Rob,  E. Rossomme,  T. Scheele,  M. Scheurer,  M. Schneider,
 N. Sergueev,  S. M. Sharada,  W. Skomorowski,  D. W. Small,  C. J. Stein,
 Yu-Chuan Su,  E. J. Sundstrom,  Zhen Tao,  J. Thirman,  T. Tsuchimochi,
 N. M. Tubman,  S. P. Veccham,  O. Vydrov,  J. Wenzel,  J. Witte,  A. Yamada,
 Kun Yao,  S. Yeganeh,  S. R. Yost,  A. Zech,  Igor Ying Zhang,  Xing Zhang,
 Yu Zhang,  D. Zuev,  A. Aspuru-Guzik,  A. T. Bell,  N. A. Besley,
 K. B. Bravaya,  B. R. Brooks,  D. Casanova,  Jeng-Da Chai,  S. Coriani,
 C. J. Cramer,  A. E. DePrince, III,  R. A. DiStasio Jr.,  A. Dreuw,
 B. D. Dunietz,  T. R. Furlani,  W. A. Goddard III,  S. Grimme,
 S. Hammes-Schiffer,  T. Head-Gordon,  W. J. Hehre,  Chao-Ping Hsu,
 T.-C. Jagau,  Yousung Jung,  A. Klamt,  Jing Kong,  D. S. Lambrecht,
 WanZhen Liang,  N. J. Mayhall,  C. W. McCurdy,  J. B. Neaton,
 C. Ochsenfeld,  J. A. Parkhill,  R. Peverati,  V. A. Rassolov,  Yihan Shao,
 L. V. Slipchenko,  T. Stauch,  R. P. Steele,  J. E. Subotnik,
 A. J. W. Thom,  A. Tkatchenko,  D. G. Truhlar,  T. Van Voorhis,
 T. A. Wesolowski,  K. B. Whaley,  H. L. Woodcock III,  P. M. Zimmerman,
 S. Faraji,  P. M. W. Gill,  M. Head-Gordon,  J. M. Herbert,  A. I. Krylov

 Additional authors for Version 5.4.1:
 S. Kotaru,  Shaozhi Li,  Xiangyuan Li,  F. Matz,  A. Molle,  Haisheng Ren,
 Yingli Su,  Hung-Yi Tsai,  C. Utku,  Fang Wang

 Contributors to earlier versions of Q-Chem not listed above:
 R. D. Adamson,  B. Austin,  R. Baer,  J. Baker,  G. J. O. Beran,
 K. Brandhorst,  S. T. Brown,  E. F. C. Byrd,  A. K. Chakraborty,
 G. K. L. Chan,  Chun-Min Chang,  Yunqing Chen,  C.-L. Cheng,
 Siu Hung Chien,  D. M. Chipman,  D. L. Crittenden,  H. Dachsel,
 R. J. Doerksen,  A. D. Dutoi,  R. G. Edgar,  J. Fosso-Tande,
 L. Fusti-Molnar,  D. Ghosh,  A. Ghysels,  A. Golubeva-Zadorozhnaya,
 J. Gonthier,  M. S. Gordon,  S. R. Gwaltney,  G. Hawkins,  J. E. Herr,
 A. Heyden,  S. Hirata,  E. G. Hohenstein,  G. Kedziora,  F. J. Keil,
 C. Kelley,  Jihan Kim,  R. A. King,  R. Z. Khaliullin,  P. P. Korambath,
 W. Kurlancheek,  A. Laurent,  A. M. Lee,  M. S. Lee,  S. V. Levchenko,
 Ching Yeh Lin,  D. Liotard,  E. Livshits,  R. C. Lochan,  I. Lotan,
 L. A. Martinez-Martinez,  P. E. Maslen,  N. Nair,  D. P. O'Neill,
 D. Neuhauser,  E. Neuscamman,  C. M. Oana,  R. Olivares-Amaya,  R. Olson,
 T. M. Perrine,  B. Peters,  P. A. Pieniazek,  A. Prociuk,  Y. M. Rhee,
 J. Ritchie,  M. A. Rohrdanz,  E. Rosta,  N. J. Russ,  H. F. Schaefer III,
 M. W. Schmidt,  N. E. Schultz,  S. Sharma,  N. Shenvi,  C. D. Sherrill,
 A. C. Simmonett,  A. Sodt,  T. Stein,  D. Stuck,  K. S. Thanthiriwatte,
 V. Vanovschi,  L. Vogt,  Tao Wang,  A. Warshel,  M. A. Watson,
 C. F. Williams,  Q. Wu,  X. Xu,  Jun Yang,  W. Zhang,  Yan Zhao

 Please cite Q-Chem as follows:
 Y. Shao et al., Mol. Phys. 113, 184-215 (2015)
 DOI: 10.1080/00268976.2014.952696

 Q-Chem 5.4.1 for Intel X86 EM64T Linux

 Parts of Q-Chem use Armadillo 9.900.5 (Nocturnal Misbehaviour).
 http://arma.sourceforge.net/

 Q-Chem begins on Fri Jul  1 20:00:20 2022

 Host: p09r14n09.grace.hpc.yale.internal
0

     Scratch files written to /home/tl686/scratch60/qchem_dev/scratch/qchem9138//
 Processing $rem in /home/tl686/qchem_dev/qchem/config/preferences:
 Processing $rem in /home/tl686/.qchemrc:
Applying user defined connections for MM calculations
The previous job contains 0 fragments, simply inherited here

 Checking the input file for inconsistencies... 	...done.

--------------------------------------------------------------
User input:
--------------------------------------------------------------

$molecule
READ
$end

$qm_atoms
1:11
$end

$force_field_params
NumAtomTypes 3
AtomType -1   0.0238     3.11   0.2868
AtomType -2   0.07124    3.30   0.6597
AtomType -3  -0.0760     3.09   0.1434
$end

$rem
     JOBTYPE  freq
     METHOD   bp86
     BASIS    def2-msvp
     MAX_SCF_CYCLES   800
     INPUT_BOHR TRUE
     SYM_IGNORE TRUE
     SCF_GUESS     read
     user_connect            true
     qm_mm_interface         ONIOM
     force_field             oplsaa
$end

--------------------------------------------------------------

    3   -1830.5136968420      6.14E-09 Convergence criterion met
 Total energy in the final basis set = -1828.23678845

                    Orbital Energies (a.u.)
 --------------------------------------------------------------

 Alpha MOs
 -- Occupied --
******** -29.6307 -25.5905 -25.5790 -25.5729 -18.8891 -18.8825 -18.8816
-18.8782 -18.8685 -10.0552 -10.0532 -10.0480 -10.0421 -10.0338  -3.3161
 -2.1524  -2.1309  -2.1153  -1.0630  -1.0591  -1.0548  -1.0523  -1.0488
 -0.5773  -0.5334  -0.5174  -0.5159  -0.5093  -0.4585  -0.4471  -0.4434
 -0.4340  -0.4315  -0.4296  -0.4288  -0.4195  -0.4177  -0.4112  -0.4103
 -0.4037  -0.4010  -0.3935  -0.3723  -0.2764  -0.2641  -0.2303  -0.2198

          Ground-State Mulliken Net Atomic Charges

     Atom                 Charge (a.u.)
  ----------------------------------------
      1 Fe                   -0.451293
      2 C                     0.172544
      3 C                     0.203004
      4 C                     0.236449
      5 C                     0.226336
      6 C                     0.154076
      7 O                    -0.118104
      8 O                    -0.101392
      9 O                    -0.111535
     10 O                    -0.101078
     11 O                    -0.109006
  ----------------------------------------
  Sum of atomic charges =     0.000000

                    Cartesian Multipole Moments
 -----------------------------------------------------------------
    Charge (ESU x 10^10)
                 0.0000
    Dipole Moment (Debye)
         X       0.0464058786      Y      -0.3307611587      Z      -0.2429880657
       Tot       0.4130371046
    Quadrupole Moments (Debye-Ang)
        XX     -23.9560     XY    -162.7167     YY     -50.8368
        XZ    -118.0557     YZ      -4.5897     ZZ     -86.8389
