 Q-Chem 5.4 (devel), Q-Chem, Inc., Pleasanton, CA (2021)
 Q-Chem 5.4.1 for Intel X86 EM64T Linux

User input:
--------------------------------------------------------------
$molecule
0   1
 Fe 362.07428018 11.69578549 -40.23059233    -1  0   0   0   0
C 359.97477418 13.13005160 -42.44661633    -2  0   0   0   0
C 365.20149499 10.96127984 -41.52391952    -2  0   0   0   0
C 363.39885139 14.82663313 -39.42761212    -2  0   0   0   0
C 361.37556621 11.00571756 -36.99987122    -2  0   0   0   0
C 360.55461783 8.95905237 -41.14983394    -2  0   0   0   0
O 358.54486375 14.05559717 -43.80130782    -3  0   0   0   0
O 367.15481100 10.43832766 -42.49342827    -3  0   0   0   0
O 364.27007861 16.81368508 -39.00533156    -3  0   0   0   0
O 360.98495822 10.26811755 -34.95628323    -3  0   0   0   0
O 359.39838338 7.35509686 -42.07601402    -3  0   0   0   0
H 353.18204355 34.74134583 -44.31424331      6     13    0    0    0
C 351.91304991 36.17460036 -43.22832052     1     12    14    15    16
H 353.21378317 37.74744321 -42.92732389     6     13    0    0    0
H 350.59439666 36.94726984 -44.60490988     6     13    0    0    0
C 350.57762976 35.00268229 -40.85847573     2     13    17    18    19
H 352.21560323 34.73874292 -39.55520768     6     16    0    0    0
H 349.26720789 36.31834683 -39.99774255     6     16    0    0    0
C 349.31371483 32.34157782 -41.29999488     2     16    20   21   22
H 347.82696822 32.77610662 -42.72034317     6     19    0    0    0
H 350.66501359 30.99284743 -42.26559475     6     19    0    0    0
C 348.47962460 31.14886462 -38.76282105     2     19   23   24   25
H 350.20856179 31.13787080 -37.57795204     6    22    0    0    0
H 346.99930796 32.32060233 -37.86707201     6    22    0    0    0
C 347.38710454 28.42247626 -38.93595896     2    22   26   27   28
H 345.72984837 28.43059378 -40.08162042     6    25    0    0    0
H 348.89016264 27.47603207 -39.98718329     6    25    0    0    0
C 347.01690976 27.06042987 -36.42666863     2    25   29   30   31
H 348.58588641 27.29321181 -35.17959847     6    28    0    0    0
H 345.45602410 27.92880524 -35.47054980     6    28    0    0    0
C 346.32666764 24.19772384 -36.55382834     2    28   32   33   34
H 344.66893449 24.16315601 -37.76333543     6    31    0    0    0
H 347.79848585 23.25935863 -37.60263476     6    31    0    0    0
C 345.61016720 23.23800467 -34.03702781     2    31   35   36   37
H 345.90533462 24.59083028 -32.64971024     6    34    0    0    0
H 343.53264688 23.23195919 -34.09346757     6    34    0    0    0
C 346.46288567 20.74528470 -33.03877875     2    34   38   39   40
H 346.39459275 19.23654835 -34.35547439     6    37    0    0    0
H 348.43395107 20.95995805 -32.41935738     6    37    0    0    0
C 344.65384107 19.72354040 -30.89882381     2    37   41   42   43
H 344.25345927 21.28783499 -29.67690978     6    40    0    0    0
H 342.99838147 18.78800532 -31.70942581     6    40    0    0    0
C 346.05076583 17.60173089 -29.59851478     2    40   44   45   46
H 346.52602221 16.24362090 -31.18926719     6    43    0    0    0
H 347.95165421 18.21810509 -29.12145404     6    43    0    0    0
C 344.56515118 16.70915141 -27.32224646     1    43   47   48   49
H 344.59116218 18.16569202 -26.04729271     6    46    0    0    0
H 345.46631927 15.14986901 -26.32963677     6    46    0    0    0
H 342.64444174 16.02661328 -27.80619913     6    46    0    0    0
H 351.79809604 7.53884984 -39.29727285     6     51    0    0    0
C 353.68968352 8.20926009 -39.69088882     1     50    52    53    54
H 355.06446867 7.05649885 -38.73603230     6     51    0    0    0
H 354.05685527 7.88975347 -41.67306512     6     51    0    0    0
C 354.32754619 11.00439000 -38.95172477     2     51    55    56    57
H 356.09433529 11.74989826 -39.57225150     6     54    0    0    0
H 352.97049628 12.14020052 -39.91705301     6     54    0    0    0
C 354.09630038 11.42821536 -36.03912719     2     54    58   59   60
H 354.66215644 9.72883695 -35.02906708     6     57    0    0    0
H 355.48679735 12.81800059 -35.45181086     6     57    0    0    0
C 351.41672948 12.17280548 -35.10890696     2     57   61   62   63
H 350.95854127 14.01508208 -35.87106922     6    60    0    0    0
H 350.30397180 10.75691507 -35.94717984     6    60    0    0    0
C 350.89169036 12.08227687 -32.14722750     2    60   64   65   66
H 351.95594885 10.58785931 -31.19952363     6    63    0    0    0
H 350.81948359 13.73109196 -31.15015274     6    63    0    0    0
C 348.12196857 11.17504327 -31.68492480     2    63   67   68   69
H 347.60576112 11.65298493 -29.72890060     6    66    0    0    0
H 346.87540458 12.22865889 -32.83420989     6    66    0    0    0
C 347.58618826 8.31022657 -31.88905253     2    66   70   71   72
H 348.14100322 7.53258466 -33.60822709     6    69    0    0    0
H 348.81027738 7.53084615 -30.40842012     6    69    0    0    0
C 344.77858774 7.61635781 -31.43570682     2    69   73   74   75
H 343.92164682 8.29492031 -29.80138082     6    72    0    0    0
H 343.63814718 8.59890399 -32.84934249     6    72    0    0    0
C 344.04640225 4.91132908 -31.97163720     2    72   76   77   78
H 345.10900518 3.91172744 -33.44633302     6    75    0    0    0
H 344.40668573 3.89954387 -30.25452631     6    75    0    0    0
C 341.25692369 4.27274426 -32.62097129     2    75   79   80   81
H 339.92512206 5.03354283 -31.12878548     6    78    0    0    0
H 340.65541560 5.35322566 -34.21347492     6    78    0    0    0
C 340.94511724 1.31427645 -32.91579313     2    78   82   83   84
H 342.66727472 0.37485355 -33.51438925     6    81    0    0    0
H 340.76361306 0.49009560 -31.00856319     6    81    0    0    0
C 338.74114997 0.51811887 -34.72156290     1    81   85   86   87
H 338.60149681 -1.37977179 -34.66637822     6    84    0    0    0
H 339.24586888 0.85448227 -36.64418444     6    84    0    0    0
H 337.00910855 1.44620094 -34.11830176     6    84    0    0    0
H 345.63778413 41.67491720 -23.75716359     6     89    0    0    0
C 343.98804271 40.78887197 -22.81387599     1     88    90    91    92
H 344.76138622 40.32941392 -20.92987079     6     89    0    0    0
H 342.67857555 42.33929579 -22.47833030     6     89    0    0    0
C 342.79710460 38.54690755 -23.93438793     2     89    93    94    95
H 342.35275464 38.94694760 -25.92689099     6     92    0    0    0
H 344.27843133 37.02241148 -24.14120901     6     92    0    0    0
C 340.43811937 37.61645551 -22.56204530     2     92    96   97   98
H 341.00140967 37.41180754 -20.51220788     6     95    0    0    0
H 338.97230079 39.10022809 -22.55437178     6     95    0    0    0
C 339.50531027 35.20100715 -24.02413103     2     95   99   100   101
H 339.00800188 35.87443538 -25.92100249     6    98    0    0    0
H 340.94561262 33.70239424 -24.18356281     6    98    0    0    0
C 337.21412351 34.19318787 -22.86989815     2    98   102   103   104
H 337.42021894 33.90238117 -20.75803467     6    101    0    0    0
H 335.61029199 35.39635695 -22.95100946     6    101    0    0    0
C 336.03787449 31.77818101 -24.05875347     2    101   105   106   107
H 335.99628104 32.02939165 -26.04676628     6    104    0    0    0
H 337.48494091 30.29476149 -24.11336348     6    104    0    0    0
C 333.50330466 30.85593685 -22.99527617     2    104   108   109   110
H 333.66309596 30.04000301 -21.12299271     6    107    0    0    0
H 332.13026878 32.32069642 -22.56498119     6    107    0    0    0
C 332.39166695 28.73533047 -24.67816340     2    107   111   112   113
H 331.18065725 29.78672270 -26.08296000     6    110    0    0    0
H 333.77926834 27.54811189 -25.47843803     6    110    0    0    0
C 330.50250917 27.24491755 -23.13054012     2    110   114   115   116
H 331.33110173 26.40154715 -21.45246279     6    113    0    0    0
H 329.16920204 28.55868584 -22.23092066     6    113    0    0    0
C 328.70406429 25.60881178 -24.82620817     2    113   117   118   119
H 327.57353864 26.99659195 -25.79223553     6    116    0    0    0
H 329.66841379 24.44860226 -26.28455774     6    116    0    0    0
C 327.03678501 23.85418902 -23.31836974     2    116   120   121   122
H 325.96792537 22.52147313 -24.49305571     6    119    0    0    0
H 328.34540857 22.69627130 -22.17747426     6    119    0    0    0
C 325.15261924 24.96133478 -21.49130596     1    119   123   124   125
H 324.90281796 23.44606848 -20.15528040     6    122    0    0    0
H 323.29490218 25.35531140 -22.23946740     6    122    0    0    0
H 325.65365029 26.56467697 -20.46653609     6    122    0    0    0
H 359.82391465 32.56659321 -16.92474558     6     127    0    0    0
C 361.03488664 30.89954868 -17.43932634     1     126    128    129    130
H 362.41529274 30.85481698 -15.95817806     6     127    0    0    0
H 359.92405214 29.17519574 -17.53565764     6     127    0    0    0
C 362.26254018 31.44909870 -19.97535538     2     127    131    132    133
H 360.74709894 32.06897276 -21.34937930     6     130    0    0    0
H 363.23417145 33.25571697 -19.71535423     6     130    0    0    0
C 363.98378196 29.20152775 -20.82068655     2     130    134   135   136
H 365.59665742 28.88408626 -19.51086936     6     133    0    0    0
H 362.92288195 27.42006182 -20.80165783     6     133    0    0    0
C 365.39025553 29.88413737 -23.48849466     2     133   137   138   139
H 364.29797869 30.43293852 -25.09713900     6    136    0    0    0
H 366.42579266 31.60960550 -22.96804022     6    136    0    0    0
C 367.33172007 27.89789245 -24.15612117     2    136   140   141   142
H 368.49652317 27.31392620 -22.57763752     6    139    0    0    0
H 366.37183554 26.05035045 -24.80468770     6    139    0    0    0
C 369.26790480 28.90335268 -25.90961040     2    139   143   144   145
H 368.34107118 29.49165532 -27.77229056     6    142    0    0    0
H 370.27657047 30.43824925 -25.03534408     6    142    0    0    0
C 371.09687664 26.83015156 -26.51186228     2    142   146   147   148
H 372.18160967 26.19463124 -24.87161405     6    145    0    0    0
H 369.81878404 25.21805905 -27.15247878     6    145    0    0    0
C 372.62135982 27.50712289 -28.74223974     2    145   149   150   151
H 371.40975101 28.18404330 -30.21777047     6    148    0    0    0
H 373.71765526 29.22483603 -28.17106594     6    148    0    0    0
C 374.40758777 25.33776622 -29.77668394     2    148   152   153   154
H 374.86299115 24.15888309 -28.19897971     6    151    0    0    0
H 373.21552673 24.14463004 -30.99382650     6    151    0    0    0
C 376.63703316 26.47774399 -31.12587198     2    151   155   156   157
H 375.92477456 27.37135635 -32.82284890     6    154    0    0    0
H 377.40822677 28.11597126 -30.15267911     6    154    0    0    0
C 378.92453277 24.69135571 -31.39725309     2    154   158   159   160
H 380.02571133 24.78173838 -29.70541756     6    157    0    0    0
H 378.19846810 22.77862317 -31.41827062     6    157    0    0    0
C 380.64596887 25.26061838 -33.71246853     1    157   161   162   163
H 382.57348244 24.52159236 -33.18453223     6    160    0    0    0
H 380.53495919 27.26890228 -34.18654655     6    160    0    0    0
H 379.73433880 24.38872406 -35.50878746     6    160    0    0    0
H 349.29685627 18.29588324 -7.05442382     6     165    0    0    0
C 350.36422282 20.10506346 -6.78774577     1     164    166    167    168
H 349.15990512 21.64998160 -7.13645704     6     165    0    0    0
H 350.89232758 20.24694353 -4.78744157     6     165    0    0    0
C 352.84382201 19.98258481 -8.20419759     2     165    169    170    171
H 353.88360028 18.28882088 -7.90315764     6     168    0    0    0
H 352.43262654 20.04912756 -10.33690520     6     168    0    0    0
C 354.85768182 21.99367976 -7.27403570     2     168    172   173   174
H 353.79450145 23.68860037 -6.92905881     6     171    0    0    0
H 355.81426168 21.49309987 -5.47785896     6     171    0    0    0
C 356.84523625 22.33700065 -9.45474769     2     171   175   176   177
H 357.66603442 20.41381080 -9.89484886     6    174    0    0    0
H 355.62662042 22.86591338 -11.10990151     6    174    0    0    0
C 358.58061230 24.52612285 -8.81534242     2    174   178   179   180
H 357.34890481 26.25808783 -8.85713572     6    177    0    0    0
H 359.08106686 24.67890370 -6.77738613     6    177    0    0    0
C 361.18804636 24.75253316 -10.10889302     2    177   181   182   183
H 362.16380679 22.95501702 -9.77881750     6    180    0    0    0
H 360.63856193 24.78059880 -11.99617372     6    180    0    0    0
C 362.64658861 27.19982268 -9.54539737     2    180   184   185   186
H 361.35289156 28.67258598 -9.97164623     6    183    0    0    0
H 363.13542996 27.30069256 -7.61909358     6    183    0    0    0
C 364.87358623 27.43544699 -11.35616550     2    183   187   188   189
H 366.21086869 25.93859406 -10.88275789     6    186    0    0    0
H 364.18304773 26.95447811 -13.32059152     6    186    0    0    0
C 366.31461057 29.99694627 -11.31956103     2    186   190   191   192
H 365.15738681 31.62378175 -11.71933813     6    189    0    0    0
H 367.09209773 30.25871066 -9.37119834     6    189    0    0    0
C 368.78902166 29.88679858 -13.10314225     2    189   193   194   195
H 369.91701860 28.11410060 -12.89390146     6    192    0    0    0
H 368.00029916 29.79726615 -14.97598147     6    192    0    0    0
C 370.51266466 32.18931266 -12.61593250     2    192   196   197   198
H 369.56075609 34.07894932 -12.36998317     6    195    0    0    0
H 371.52442526 31.65889907 -10.86313360     6    195    0    0    0
C 372.37237928 32.73275006 -14.66322240     1    195   199   200   201
H 371.38422092 33.93055604 -15.97659988     6    198    0    0    0
H 372.84412517 30.90297786 -15.59433110     6    198    0    0    0
H 374.17526250 33.44833258 -14.19451500     6    198    0    0    0
H 351.09959434 11.93472529 -3.88990738     6     203    0    0    0
C 352.50235770 10.46066090 -3.91795973     1     202    204    205    206
H 354.01741740 11.03042971 -2.72428753     6     203    0    0    0
H 351.78518069 8.79281286 -2.95517628     6     203    0    0    0
C 353.26563815 9.78929564 -6.74476393     2     203    207    208    209
H 351.62591599 9.63199044 -8.12166243     6     206    0    0    0
H 354.19332402 11.48122698 -7.55485439     6     206    0    0    0
C 354.96320151 7.63100605 -6.70460472     2     206    210   211   212
H 356.01120917 7.21117908 -8.31687203     6     209    0    0    0
H 356.56693357 7.63932425 -5.22992542     6     209    0    0    0
C 353.45879261 5.14754003 -6.24412036     2     209   213   214   215
H 352.79879223 5.09469227 -4.23274567     6    212    0    0    0
H 351.80610384 5.18317369 -7.46528686     6    212    0    0    0
C 355.13070092 2.83491493 -6.72801421     2    212   216   217   218
H 355.96018307 2.66984985 -8.60786637     6    215    0    0    0
H 356.72068745 2.82876275 -5.52563636     6    215    0    0    0
C 353.44109469 0.32311970 -6.47227690     2    215   219   220   221
H 352.05313961 0.48786620 -4.86062507     6    218    0    0    0
H 352.36962960 0.02929762 -8.10268177     6    218    0    0    0
C 355.07060384 -2.14270964 -6.38495560     2    218   222   223   224
H 356.16520180 -2.20224972 -8.25485956     6    221    0    0    0
H 356.23517541 -2.21807089 -4.66139265     6    221    0    0    0
C 353.40112309 -4.51886385 -6.29889462     2    221   225   226   227
H 352.31804131 -4.56499037 -4.43427275     6    224    0    0    0
H 352.08198821 -4.34456685 -7.90289409     6    224    0    0    0
C 354.89295944 -7.02176614 -6.38680236     2    224   228   229   230
H 355.96321229 -6.85741193 -8.17631666     6    227    0    0    0
H 356.12938356 -6.82537821 -4.86399008     6    227    0    0    0
C 353.07231971 -9.26025231 -6.34513487     2    227   231   232   233
H 353.21585637 -9.95765669 -4.28153339     6    230    0    0    0
H 351.19324510 -8.54406900 -6.80242891     6    230    0    0    0
C 354.09894574 -11.44855136 -7.99677168     2    230   234   235   236
H 354.59747199 -10.64245754 -9.81049386     6    233    0    0    0
H 355.95632376 -12.17714344 -7.46854198     6    233    0    0    0
C 352.25793894 -13.58646792 -8.05996903     1    233   237   238   239
H 352.95581609 -15.04968846 -9.38928678     6    236    0    0    0
H 350.40233636 -12.92842968 -8.36037035     6    236    0    0    0
H 352.17504526 -14.61090348 -6.32054115     6    236    0    0    0
H 338.37787698 9.97097704 -31.81831959     6     241    0    0    0
C 338.79586475 11.37117550 -30.32870877     1     240    242    243    244
H 340.79535851 12.00066116 -30.54657764     6     241    0    0    0
H 337.61200538 12.93545694 -30.50182867     6     241    0    0    0
C 338.52619901 10.04283260 -27.87515189     2     241    245    246    247
H 339.12298581 8.07828836 -27.91301838     6     244    0    0    0
H 340.05814708 10.89737937 -26.76079751     6     244    0    0    0
C 335.92960360 10.10270730 -26.51439426     2     244    248   249   250
H 336.15319316 9.80283799 -24.49926008     6     247    0    0    0
H 335.35357840 12.12648819 -26.40250724     6     247    0    0    0
C 333.78806573 8.43261067 -27.71938853     2     247   251   252   253
H 332.05403853 8.65200793 -26.54185453     6    250    0    0    0
H 333.39024694 9.19699800 -29.55721556     6    250    0    0    0
C 334.14125167 5.59048332 -27.72657215     2    250   254   255   256
H 335.85028558 4.85757071 -28.56682422     6    253    0    0    0
H 334.13120390 5.04163593 -25.71710292     6    253    0    0    0
C 331.83538097 4.21997410 -28.92478800     2    253   257   258   259
H 330.49150553 3.68038705 -27.33733684     6    256    0    0    0
H 330.71199325 5.47986891 -30.11354388     6    256    0    0    0
C 332.44600629 2.05124215 -30.55736445     2    256   260   261   262
H 332.99897661 2.86828726 -32.35624187     6    259    0    0    0
H 333.85288332 0.89317596 -29.69425070     6    259    0    0    0
C 330.13931385 0.28122304 -31.07517655     2    259   263   264   265
H 329.47031982 -0.82015929 -29.28732857     6    262    0    0    0
H 328.41308632 1.32878683 -31.68665336     6    262    0    0    0
C 330.83838474 -1.71607830 -33.02270309     2    262   266   267   268
H 329.24001917 -3.01878424 -33.28402778     6    265    0    0    0
H 331.25450990 -0.80272171 -34.89147939     6    265    0    0    0
C 333.09442347 -3.37375554 -32.52514138     2    265   269   270   271
H 334.73930894 -2.85120521 -33.72178122     6    268    0    0    0
H 333.84072725 -3.16087966 -30.68318709     6    268    0    0    0
C 332.64789459 -6.21501412 -33.15151874     2    268   272   273   274
H 331.29439178 -7.29855516 -32.01994200     6    271    0    0    0
H 331.83391788 -6.25856433 -35.06631581     6    271    0    0    0
C 335.14179700 -7.69258964 -33.16451318     1    271   275   276   277
H 336.44547711 -7.04690682 -34.67120272     6    274    0    0    0
H 334.79719164 -9.60225633 -33.47164695     6    274    0    0    0
H 336.04926019 -7.82592695 -31.32591329     6    274    0    0    0
H 342.78122067 29.63879603 -9.96058532     6     279    0    0    0
C 342.44428617 27.62788666 -9.60582268     1     278    280    281    282
H 342.51744101 27.33665740 -7.41694414     6     279    0    0    0
H 340.58709510 27.17600827 -10.25862757     6     279    0    0    0
C 344.52067218 25.93565850 -10.84780778     2     279    283    284    285
H 344.89880022 26.65174819 -12.79852459     6     282    0    0    0
H 346.39955963 26.10791666 -9.72808451     6     282    0    0    0
C 343.77660956 23.18598962 -11.03762700     2     282    286   287   288
H 343.34836995 22.35595334 -9.12889430     6     285    0    0    0
H 342.21377876 22.86978066 -12.31768245     6     285    0    0    0
C 345.80360426 21.59319152 -12.17385960     2     285   289   290   291
H 345.99719546 22.09027440 -14.18692015     6    288    0    0    0
H 347.73491034 21.95661734 -11.43209278     6    288    0    0    0
C 345.24957528 18.77147395 -12.11008314     2    288   292   293   294
H 344.59002681 18.26270264 -10.17607998     6    291    0    0    0
H 343.74517268 18.22557623 -13.36202620     6    291    0    0    0
C 347.62300506 17.14798694 -12.70269062     2    291   295   296   297
H 348.21400780 17.87563764 -14.52341567     6    294    0    0    0
H 349.15814723 17.49972776 -11.40391089     6    294    0    0    0
C 346.97075701 14.32443902 -12.98065642     2    294   298   299   300

   17   -1830.5207790069      1.23E-09 Convergence criterion met
 Total energy in the final basis set = -1828.21270353
 Total job time:  16.83s(wall), 29.75s(cpu)
        *  Thank you very much for using Q-Chem.  Have a nice day.  *

User input: 2 of 2

                  Welcome to Q-Chem
     A Quantum Leap Into The Future Of Chemistry

 Q-Chem 5.4 (devel), Q-Chem, Inc., Pleasanton, CA (2021)

 E. Epifanovsky,  A. T. B. Gilbert,  Xintian Feng,  Joonho Lee,  Yuezhi Mao,
 N. Mardirossian,  P. Pokhilko,  A. White,  M. Wormit,  M. P. Coons,
 A. L. Dempwolff,  Zhengting Gan,  D. Hait,  P. R. Horn,  L. D. Jacobson,
 I. Kaliman,  J. Kussmann,  A. W. Lange,  Ka Un Lao,  D. S. Levine,  Jie Liu,
 S. C. McKenzie,  A. F. Morrison,  K. Nanda,  F. Plasser,  D. R. Rehn,
 M. L. Vidal,  Zhi-Qiang You,  Ying Zhu,  B. Alam,  B. Albrecht,
 A. Aldossary,  E. Alguire,  J. H. Andersen,  D. Barton,  K. Begam,  A. Behn,
 Y. A. Bernard,  E. J. Berquist,  H. Burton,  A. Carreras,  K. Carter-Fenk,
 R. Chakraborty,  A. D. Chien,  K. D. Closser,  V. Cofer-Shabica,
 S. Dasgupta,  Jia Deng,  M. de Wergifosse,  M. Diedenhofen,  Hainam Do,
 S. Ehlert,  Po-Tung Fang,  S. Fatehi,  Qingguo Feng,  T. Friedhoff,
 J. Gayvert,  Qinghui Ge,  G. Gidofalvi,  M. Goldey,  J. Gomes,
 C. Gonzalez-Espinoza,  S. Gulania,  A. Gunina,  M. W. D. Hanson-Heine,
 P. H. P. Harbach,  A. W. Hauser,  M. F. Herbst,  M. Hernandez Vera,
 M. Hodecker,  Z. C. Holden,  S. Houck,  Xunkun Huang,  Kerwin Hui,
 B. C. Huynh,  M. Ivanov,  Hyunjun Ji,  Hanjie Jiang,  B. Kaduk,  S. Kaehler,
 K. Khistyaev,  Jaehoon Kim,  P. Klunzinger,  Z. Koczor-Benda,
 Joong Hoon Koh,  D. Kosenkov,  L. Koulias,  T. Kowalczyk,  C. M. Krauter,
 K. Kue,  A. Kunitsa,  T. Kus,  A. Landau,  K. V. Lawler,  D. Lefrancois,
 S. Lehtola,  Rain Li,  Yi-Pei Li,  Jiashu Liang,  M. Liebenthal,
 Hung-Hsuan Lin,  You-Sheng Lin,  Fenglai Liu,  Kuan-Yu Liu,
 M. Loipersberger,  A. Luenser,  A. Manjanath,  P. Manohar,  E. Mansoor,
 S. F. Manzer,  Shan-Ping Mao,  A. V. Marenich,  T. Markovich,  S. Mason,
 S. A. Maurer,  P. F. McLaughlin,  M. F. S. J. Menger,  J.-M. Mewes,
 S. A. Mewes,  P. Morgante,  J. W. Mullinax,  K. J. Oosterbaan,  G. Paran,
 Alexander C. Paul,  Suranjan K. Paul,  F. Pavosevic,  Zheng Pei,  S. Prager,
 E. I. Proynov,  E. Ramos,  B. Rana,  A. E. Rask,  A. Rettig,  R. M. Richard,
 F. Rob,  E. Rossomme,  T. Scheele,  M. Scheurer,  M. Schneider,
 N. Sergueev,  S. M. Sharada,  W. Skomorowski,  D. W. Small,  C. J. Stein,
 Yu-Chuan Su,  E. J. Sundstrom,  Zhen Tao,  J. Thirman,  T. Tsuchimochi,
 N. M. Tubman,  S. P. Veccham,  O. Vydrov,  J. Wenzel,  J. Witte,  A. Yamada,
 Kun Yao,  S. Yeganeh,  S. R. Yost,  A. Zech,  Igor Ying Zhang,  Xing Zhang,
 Yu Zhang,  D. Zuev,  A. Aspuru-Guzik,  A. T. Bell,  N. A. Besley,
 K. B. Bravaya,  B. R. Brooks,  D. Casanova,  Jeng-Da Chai,  S. Coriani,
 C. J. Cramer,  A. E. DePrince, III,  R. A. DiStasio Jr.,  A. Dreuw,
 B. D. Dunietz,  T. R. Furlani,  W. A. Goddard III,  S. Grimme,
 S. Hammes-Schiffer,  T. Head-Gordon,  W. J. Hehre,  Chao-Ping Hsu,
 T.-C. Jagau,  Yousung Jung,  A. Klamt,  Jing Kong,  D. S. Lambrecht,
 WanZhen Liang,  N. J. Mayhall,  C. W. McCurdy,  J. B. Neaton,
 C. Ochsenfeld,  J. A. Parkhill,  R. Peverati,  V. A. Rassolov,  Yihan Shao,
 L. V. Slipchenko,  T. Stauch,  R. P. Steele,  J. E. Subotnik,
 A. J. W. Thom,  A. Tkatchenko,  D. G. Truhlar,  T. Van Voorhis,
 T. A. Wesolowski,  K. B. Whaley,  H. L. Woodcock III,  P. M. Zimmerman,
 S. Faraji,  P. M. W. Gill,  M. Head-Gordon,  J. M. Herbert,  A. I. Krylov

 Additional authors for Version 5.4.1:
 S. Kotaru,  Shaozhi Li,  Xiangyuan Li,  F. Matz,  A. Molle,  Haisheng Ren,
 Yingli Su,  Hung-Yi Tsai,  C. Utku,  Fang Wang

 Contributors to earlier versions of Q-Chem not listed above:
 R. D. Adamson,  B. Austin,  R. Baer,  J. Baker,  G. J. O. Beran,
 K. Brandhorst,  S. T. Brown,  E. F. C. Byrd,  A. K. Chakraborty,
 G. K. L. Chan,  Chun-Min Chang,  Yunqing Chen,  C.-L. Cheng,
 Siu Hung Chien,  D. M. Chipman,  D. L. Crittenden,  H. Dachsel,
 R. J. Doerksen,  A. D. Dutoi,  R. G. Edgar,  J. Fosso-Tande,
 L. Fusti-Molnar,  D. Ghosh,  A. Ghysels,  A. Golubeva-Zadorozhnaya,
 J. Gonthier,  M. S. Gordon,  S. R. Gwaltney,  G. Hawkins,  J. E. Herr,
 A. Heyden,  S. Hirata,  E. G. Hohenstein,  G. Kedziora,  F. J. Keil,
 C. Kelley,  Jihan Kim,  R. A. King,  R. Z. Khaliullin,  P. P. Korambath,
 W. Kurlancheek,  A. Laurent,  A. M. Lee,  M. S. Lee,  S. V. Levchenko,
 Ching Yeh Lin,  D. Liotard,  E. Livshits,  R. C. Lochan,  I. Lotan,
 L. A. Martinez-Martinez,  P. E. Maslen,  N. Nair,  D. P. O'Neill,
 D. Neuhauser,  E. Neuscamman,  C. M. Oana,  R. Olivares-Amaya,  R. Olson,
 T. M. Perrine,  B. Peters,  P. A. Pieniazek,  A. Prociuk,  Y. M. Rhee,
 J. Ritchie,  M. A. Rohrdanz,  E. Rosta,  N. J. Russ,  H. F. Schaefer III,
 M. W. Schmidt,  N. E. Schultz,  S. Sharma,  N. Shenvi,  C. D. Sherrill,
 A. C. Simmonett,  A. Sodt,  T. Stein,  D. Stuck,  K. S. Thanthiriwatte,
 V. Vanovschi,  L. Vogt,  Tao Wang,  A. Warshel,  M. A. Watson,
 C. F. Williams,  Q. Wu,  X. Xu,  Jun Yang,  W. Zhang,  Yan Zhao

 Please cite Q-Chem as follows:
 Y. Shao et al., Mol. Phys. 113, 184-215 (2015)
 DOI: 10.1080/00268976.2014.952696

 Q-Chem 5.4.1 for Intel X86 EM64T Linux

 Parts of Q-Chem use Armadillo 9.900.5 (Nocturnal Misbehaviour).
 http://arma.sourceforge.net/

 Q-Chem begins on Fri Jul  1 20:00:20 2022

 Host: p09r14n09.grace.hpc.yale.internal
0

     Scratch files written to /home/tl686/scratch60/qchem_dev/scratch/qchem9100//
 Processing $rem in /home/tl686/qchem_dev/qchem/config/preferences:
 Processing $rem in /home/tl686/.qchemrc:
Applying user defined connections for MM calculations
The previous job contains 0 fragments, simply inherited here

 Checking the input file for inconsistencies... 	...done.

--------------------------------------------------------------
User input:
--------------------------------------------------------------

$molecule
READ
$end

$qm_atoms
1:11
$end

$force_field_params
NumAtomTypes 3
AtomType -1   0.0238     3.11   0.2868
AtomType -2   0.07124    3.30   0.6597
AtomType -3  -0.0760     3.09   0.1434
$end

$rem
     JOBTYPE  freq
     METHOD   bp86
     BASIS    def2-msvp
     MAX_SCF_CYCLES   800
     INPUT_BOHR TRUE
     SYM_IGNORE TRUE
     SCF_GUESS     read
     user_connect            true
     qm_mm_interface         ONIOM
     force_field             oplsaa
$end

--------------------------------------------------------------

    2   -1830.5207790057      1.82E-09 Convergence criterion met
 Total energy in the final basis set = -1828.21270353

                    Orbital Energies (a.u.)
 --------------------------------------------------------------

 Alpha MOs
 -- Occupied --
******** -29.6366 -25.5961 -25.5834 -25.5801 -18.8944 -18.8793 -18.8778
-18.8762 -18.8730 -10.0636 -10.0475 -10.0464 -10.0450 -10.0406  -3.3227
 -2.1591  -2.1342  -2.1256  -1.0627  -1.0600  -1.0576  -1.0437  -1.0357
 -0.5785  -0.5310  -0.5200  -0.5171  -0.5130  -0.4589  -0.4505  -0.4398
 -0.4368  -0.4346  -0.4293  -0.4262  -0.4207  -0.4143  -0.4090  -0.4051
 -0.4039  -0.3986  -0.3951  -0.3791  -0.2820  -0.2749  -0.2349  -0.2257

          Ground-State Mulliken Net Atomic Charges

     Atom                 Charge (a.u.)
  ----------------------------------------
      1 Fe                   -0.462217
      2 C                     0.212425
      3 C                     0.239913
      4 C                     0.224256
      5 C                     0.210054
      6 C                     0.153812
      7 O                    -0.102264
      8 O                    -0.132104
      9 O                    -0.105235
     10 O                    -0.122905
     11 O                    -0.115735
  ----------------------------------------
  Sum of atomic charges =     0.000000

                    Cartesian Multipole Moments
 -----------------------------------------------------------------
    Charge (ESU x 10^10)
                -0.0000
    Dipole Moment (Debye)
         X       0.0107245869      Y       0.4445707525      Z       0.0445121945
       Tot       0.4469222597
    Quadrupole Moments (Debye-Ang)
        XX     -66.0407     XY      85.3016     YY     -63.1982
        XZ       8.4402     YZ      -8.9082     ZZ     -72.0539
